96
Lattice="9.8736349 0.0 -0.04427558 0.0 10.38654119 0.0 -1.67538057 0.0 10.08988669" Properties=species:S:1:pos:R:3:forces:R:3 virial="174.66064584045807 0.0 18.04063223401733 0.0 99.87187510687461 0.0 18.04063223401733 0.0 171.05851811763984" config_type=low energy=-970.69402116 free_energy=-970.69402116 pbc="T T T"
O        0.04132746       1.70969396       1.75328801      -0.15194218      -0.00238710      -0.45689977
O        4.97814491       1.70969396       1.73115022      -0.15194218      -0.00238710      -0.45689977
O        0.04132746       6.90296455       1.75328801      -0.15194218      -0.00238710      -0.45689977
O        4.97814491       6.90296455       1.73115022      -0.15194218      -0.00238710      -0.45689977
O       -0.79636283       1.70969396       6.79823136      -0.15194218      -0.00238710      -0.45689977
O        4.14045462       1.70969396       6.77609357      -0.15194218      -0.00238710      -0.45689977
O       -0.79636283       6.90296455       6.79823136      -0.15194218      -0.00238710      -0.45689977
O        4.14045462       6.90296455       6.77609357      -0.15194218      -0.00238710      -0.45689977
O        4.05779963       3.48357684       3.26951744       0.15194218       0.00238710       0.45689977
O        8.99461708       3.48357684       3.24737965       0.15194218       0.00238710       0.45689977
O        4.05779963       8.67684744       3.26951744       0.15194218       0.00238710       0.45689977
O        8.99461708       8.67684744       3.24737965       0.15194218       0.00238710       0.45689977
O        3.22010934       3.48357684       8.31446078       0.15194218       0.00238710       0.45689977
O        8.15692679       3.48357684       8.29232299       0.15194218       0.00238710       0.45689977
O        3.22010934       8.67684744       8.31446078       0.15194218       0.00238710       0.45689977
O        8.15692679       8.67684744       8.29232299       0.15194218       0.00238710       0.45689977
O        4.47664475       4.30632905       0.74704587       0.15194218      -0.00238710       0.45689977
O        9.41346220       4.30632905       0.72490808       0.15194218      -0.00238710       0.45689977
O        4.47664475       9.49959964       0.74704587       0.15194218      -0.00238710       0.45689977
O        9.41346220       9.49959964       0.72490808       0.15194218      -0.00238710       0.45689977
O        3.63895447       4.30632905       5.79198921       0.15194218      -0.00238710       0.45689977
O        8.57577192       4.30632905       5.76985142       0.15194218      -0.00238710       0.45689977
O        3.63895447       9.49959964       5.79198921       0.15194218      -0.00238710       0.45689977
O        8.57577192       9.49959964       5.76985142       0.15194218      -0.00238710       0.45689977
O       -0.37751770       0.88694134       4.27575979      -0.15194218       0.00238710      -0.45689977
O        4.55929975       0.88694134       4.25362200      -0.15194218       0.00238710      -0.45689977
O       -0.37751770       6.08021193       4.27575979      -0.15194218       0.00238710      -0.45689977
O        4.55929975       6.08021193       4.25362200      -0.15194218       0.00238710      -0.45689977
O       -1.21520799       0.88694134       9.32070313      -0.15194218       0.00238710      -0.45689977
O        3.72160946       0.88694134       9.29856534      -0.15194218       0.00238710      -0.45689977
O       -1.21520799       6.08021193       9.32070313      -0.15194218       0.00238710      -0.45689977
O        3.72160946       6.08021193       9.29856534      -0.15194218       0.00238710      -0.45689977
O        1.81672292       3.93266128       2.39902593      -0.45502614       0.07718437       0.11707940
O        6.75354037       3.93266128       2.37688814      -0.45502614       0.07718437       0.11707940
O        1.81672292       9.12593188       2.39902593      -0.45502614       0.07718437       0.11707940
O        6.75354037       9.12593188       2.37688814      -0.45502614       0.07718437       0.11707940
O        0.97903263       3.93266128       7.44396927      -0.45502614       0.07718437       0.11707940
O        5.91585008       3.93266128       7.42183148      -0.45502614       0.07718437       0.11707940
O        0.97903263       9.12593188       7.44396927      -0.45502614       0.07718437       0.11707940
O        5.91585008       9.12593188       7.42183148      -0.45502614       0.07718437       0.11707940
O        2.28240448       1.26060931       2.62377942       0.45502614      -0.07718437      -0.11707940
O        7.21922193       1.26060931       2.60164163       0.45502614      -0.07718437      -0.11707940
O        2.28240448       6.45387991       2.62377942       0.45502614      -0.07718437      -0.11707940
O        7.21922193       6.45387991       2.60164163       0.45502614      -0.07718437      -0.11707940
O        1.44471419       1.26060931       7.66872277       0.45502614      -0.07718437      -0.11707940
O        6.38153164       1.26060931       7.64658498       0.45502614      -0.07718437      -0.11707940
O        1.44471419       6.45387991       7.66872277       0.45502614      -0.07718437      -0.11707940
O        6.38153164       6.45387991       7.64658498       0.45502614      -0.07718437      -0.11707940
O        2.70124959       1.33602599       0.10130795       0.45502614       0.07718437      -0.11707940
O        7.63806704       1.33602599       0.07917016       0.45502614       0.07718437      -0.11707940
O        2.70124959       6.52929658       0.10130795       0.45502614       0.07718437      -0.11707940
O        7.63806704       6.52929658       0.07917016       0.45502614       0.07718437      -0.11707940
O        1.86355930       1.33602599       5.14625130       0.45502614       0.07718437      -0.11707940
O        6.80037675       1.33602599       5.12411351       0.45502614       0.07718437      -0.11707940
O        1.86355930       6.52929658       5.14625130       0.45502614       0.07718437      -0.11707940
O        6.80037675       6.52929658       5.12411351       0.45502614       0.07718437      -0.11707940
O        1.39787774       3.85724461       4.92149780      -0.45502614      -0.07718437       0.11707940
O        6.33469519       3.85724461       4.89936001      -0.45502614      -0.07718437       0.11707940
O        1.39787774       9.05051520       4.92149780      -0.45502614      -0.07718437       0.11707940
O        6.33469519       9.05051520       4.89936001      -0.45502614      -0.07718437       0.11707940
O        0.56018746       3.85724461       9.96644115      -0.45502614      -0.07718437       0.11707940
O        5.49700491       3.85724461       9.94430336      -0.45502614      -0.07718437       0.11707940
O        0.56018746       9.05051520       9.96644115      -0.45502614      -0.07718437       0.11707940
O        5.49700491       9.05051520       9.94430336      -0.45502614      -0.07718437       0.11707940
Hf       1.18784400       0.22175992       1.04299109       0.65470092      -0.14699431       0.56492781
Hf       6.12466145       0.22175992       1.02085330       0.65470092      -0.14699431       0.56492781
Hf       1.18784400       5.41503052       1.04299109       0.65470092      -0.14699431       0.56492781
Hf       6.12466145       5.41503052       1.02085330       0.65470092      -0.14699431       0.56492781
Hf       0.35015372       0.22175992       6.08793444       0.65470092      -0.14699431       0.56492781
Hf       5.28697117       0.22175992       6.06579665       0.65470092      -0.14699431       0.56492781
Hf       0.35015372       5.41503052       6.08793444       0.65470092      -0.14699431       0.56492781
Hf       5.28697117       5.41503052       6.06579665       0.65470092      -0.14699431       0.56492781
Hf       2.91128318       4.97151077       3.97981436      -0.65470092       0.14699431      -0.56492781
Hf       7.84810063       4.97151077       3.95767657      -0.65470092       0.14699431      -0.56492781
Hf       2.91128318      10.16478137       3.97981436      -0.65470092       0.14699431      -0.56492781
Hf       7.84810063      10.16478137       3.95767657      -0.65470092       0.14699431      -0.56492781
Hf       2.07359290       4.97151077       9.02475771      -0.65470092       0.14699431      -0.56492781
Hf       7.01041035       4.97151077       9.00261992      -0.65470092       0.14699431      -0.56492781
Hf       2.07359290      10.16478137       9.02475771      -0.65470092       0.14699431      -0.56492781
Hf       7.01041035      10.16478137       9.00261992      -0.65470092       0.14699431      -0.56492781
Hf       3.33012831       2.81839512       1.45734279      -0.65470092      -0.14699431      -0.56492781
Hf       8.26694576       2.81839512       1.43520500      -0.65470092      -0.14699431      -0.56492781
Hf       3.33012831       8.01166571       1.45734279      -0.65470092      -0.14699431      -0.56492781
Hf       8.26694576       8.01166571       1.43520500      -0.65470092      -0.14699431      -0.56492781
Hf       2.49243802       2.81839512       6.50228613      -0.65470092      -0.14699431      -0.56492781
Hf       7.42925547       2.81839512       6.48014834      -0.65470092      -0.14699431      -0.56492781
Hf       2.49243802       8.01166571       6.50228613      -0.65470092      -0.14699431      -0.56492781
Hf       7.42925547       8.01166571       6.48014834      -0.65470092      -0.14699431      -0.56492781
Hf       0.76899884       2.37487537       3.56546287       0.65470092       0.14699431       0.56492781
Hf       5.70581629       2.37487537       3.54332508       0.65470092       0.14699431       0.56492781
Hf       0.76899884       7.56814597       3.56546287       0.65470092       0.14699431       0.56492781
Hf       5.70581629       7.56814597       3.54332508       0.65470092       0.14699431       0.56492781
Hf      -0.06869144       2.37487537       8.61040621       0.65470092       0.14699431       0.56492781
Hf       4.86812601       2.37487537       8.58826842       0.65470092       0.14699431       0.56492781
Hf      -0.06869144       7.56814597       8.61040621       0.65470092       0.14699431       0.56492781
Hf       4.86812601       7.56814597       8.58826842       0.65470092       0.14699431       0.56492781
96
Lattice="10.33646154 0.0 -0.046351 0.0 10.43847389 0.0 -1.7451881 0.0 10.51029863" Properties=species:S:1:pos:R:3:forces:R:3 virial="-20.069248524452117 0.0 -2.2357723635918125 0.0 -19.931346849264816 0.0 -2.2357723635918125 0.0 -9.351572491710154" config_type=low energy=-977.59276874 free_energy=-977.59276874 pbc="T T T"
O        0.04478225       1.71824243       1.82633391       0.01407735       0.00549021       0.00637190
O        5.21301302       1.71824243       1.80315841       0.01407735       0.00549021       0.00637190
O        0.04478225       6.93747937       1.82633391       0.01407735       0.00549021       0.00637190
O        5.21301302       6.93747937       1.80315841       0.01407735       0.00549021       0.00637190
O       -0.82781180       1.71824243       7.08148323       0.01407735       0.00549021       0.00637190
O        4.34041897       1.71824243       7.05830773       0.01407735       0.00549021       0.00637190
O       -0.82781180       6.93747937       7.08148323       0.01407735       0.00549021       0.00637190
O        4.34041897       6.93747937       7.05830773       0.01407735       0.00549021       0.00637190
O        4.25085438       3.50099473       3.40563980      -0.01407735      -0.00549021      -0.00637190
O        9.41908515       3.50099473       3.38246430      -0.01407735      -0.00549021      -0.00637190
O        4.25085438       8.72023167       3.40563980      -0.01407735      -0.00549021      -0.00637190
O        9.41908515       8.72023167       3.38246430      -0.01407735      -0.00549021      -0.00637190
O        3.37826033       3.50099473       8.66078911      -0.01407735      -0.00549021      -0.00637190
O        8.54649110       3.50099473       8.63761361      -0.01407735      -0.00549021      -0.00637190
O        3.37826033       8.72023167       8.66078911      -0.01407735      -0.00549021      -0.00637190
O        8.54649110       8.72023167       8.63761361      -0.01407735      -0.00549021      -0.00637190
O        4.68715139       4.32786069       0.77806525      -0.01407735       0.00549021      -0.00637190
O        9.85538216       4.32786069       0.75488975      -0.01407735       0.00549021      -0.00637190
O        4.68715139       9.54709764       0.77806525      -0.01407735       0.00549021      -0.00637190
O        9.85538216       9.54709764       0.75488975      -0.01407735       0.00549021      -0.00637190
O        3.81455734       4.32786069       6.03321456      -0.01407735       0.00549021      -0.00637190
O        8.98278811       4.32786069       6.01003906      -0.01407735       0.00549021      -0.00637190
O        3.81455734       9.54709764       6.03321456      -0.01407735       0.00549021      -0.00637190
O        8.98278811       9.54709764       6.01003906      -0.01407735       0.00549021      -0.00637190
O       -0.39151479       0.89137605       4.45390867       0.01407735      -0.00549021       0.00637190
O        4.77671598       0.89137605       4.43073317       0.01407735      -0.00549021       0.00637190
O       -0.39151479       6.11061299       4.45390867       0.01407735      -0.00549021       0.00637190
O        4.77671598       6.11061299       4.43073317       0.01407735      -0.00549021       0.00637190
O       -1.26410884       0.89137605       9.70905799       0.01407735      -0.00549021       0.00637190
O        3.90412193       0.89137605       9.68588249       0.01407735      -0.00549021       0.00637190
O       -1.26410884       6.11061299       9.70905799       0.01407735      -0.00549021       0.00637190
O        3.90412193       6.11061299       9.68588249       0.01407735      -0.00549021       0.00637190
O        1.90396513       3.95232459       2.49893357       0.05724058      -0.00491035      -0.00151294
O        7.07219590       3.95232459       2.47575807       0.05724058      -0.00491035      -0.00151294
O        1.90396513       9.17156153       2.49893357       0.05724058      -0.00491035      -0.00151294
O        7.07219590       9.17156153       2.47575807       0.05724058      -0.00491035      -0.00151294
O        1.03137108       3.95232459       7.75408288       0.05724058      -0.00491035      -0.00151294
O        6.19960185       3.95232459       7.73090738       0.05724058      -0.00491035      -0.00151294
O        1.03137108       9.17156153       7.75408288       0.05724058      -0.00491035      -0.00151294
O        6.19960185       9.17156153       7.73090738       0.05724058      -0.00491035      -0.00151294
O        2.39167183       1.26691236       2.73304004      -0.05724058       0.00491035       0.00151294
O        7.55990260       1.26691236       2.70986454      -0.05724058       0.00491035       0.00151294
O        2.39167183       6.48614930       2.73304004      -0.05724058       0.00491035       0.00151294
O        7.55990260       6.48614930       2.70986454      -0.05724058       0.00491035       0.00151294
O        1.51907778       1.26691236       7.98818935      -0.05724058       0.00491035       0.00151294
O        6.68730855       1.26691236       7.96501385      -0.05724058       0.00491035       0.00151294
O        1.51907778       6.48614930       7.98818935      -0.05724058       0.00491035       0.00151294
O        6.68730855       6.48614930       7.96501385      -0.05724058       0.00491035       0.00151294
O        2.82796882       1.34270612       0.10546559      -0.05724058      -0.00491035       0.00151294
O        7.99619959       1.34270612       0.08229009      -0.05724058      -0.00491035       0.00151294
O        2.82796882       6.56194306       0.10546559      -0.05724058      -0.00491035       0.00151294
O        7.99619959       6.56194306       0.08229009      -0.05724058      -0.00491035       0.00151294
O        1.95537477       1.34270612       5.36061490      -0.05724058      -0.00491035       0.00151294
O        7.12360554       1.34270612       5.33743940      -0.05724058      -0.00491035       0.00151294
O        1.95537477       6.56194306       5.36061490      -0.05724058      -0.00491035       0.00151294
O        7.12360554       6.56194306       5.33743940      -0.05724058      -0.00491035       0.00151294
O        1.46766807       3.87653083       5.12650843       0.05724058       0.00491035      -0.00151294
O        6.63589884       3.87653083       5.10333293       0.05724058       0.00491035      -0.00151294
O        1.46766807       9.09576777       5.12650843       0.05724058       0.00491035      -0.00151294
O        6.63589884       9.09576777       5.10333293       0.05724058       0.00491035      -0.00151294
O        0.59507402       3.87653083      10.38165775       0.05724058       0.00491035      -0.00151294
O        5.76330479       3.87653083      10.35848225       0.05724058       0.00491035      -0.00151294
O        0.59507402       9.09576777      10.38165775       0.05724058       0.00491035      -0.00151294
O        5.76330479       9.09576777      10.35848225       0.05724058       0.00491035      -0.00151294
Hf       1.24443147       0.22286872       1.08641724      -0.08145886       0.02297787      -0.02868000
Hf       6.41266224       0.22286872       1.06324174      -0.08145886       0.02297787      -0.02868000
Hf       1.24443147       5.44210567       1.08641724      -0.08145886       0.02297787      -0.02868000
Hf       6.41266224       5.44210567       1.06324174      -0.08145886       0.02297787      -0.02868000
Hf       0.37183742       0.22286872       6.34156656      -0.08145886       0.02297787      -0.02868000
Hf       5.54006819       0.22286872       6.31839106      -0.08145886       0.02297787      -0.02868000
Hf       0.37183742       5.44210567       6.34156656      -0.08145886       0.02297787      -0.02868000
Hf       5.54006819       5.44210567       6.31839106      -0.08145886       0.02297787      -0.02868000
Hf       3.05120527       4.99636832       4.14555647       0.08145886      -0.02297787       0.02868000
Hf       8.21943604       4.99636832       4.12238097       0.08145886      -0.02297787       0.02868000
Hf       3.05120527      10.21560527       4.14555647       0.08145886      -0.02297787       0.02868000
Hf       8.21943604      10.21560527       4.12238097       0.08145886      -0.02297787       0.02868000
Hf       2.17861122       4.99636832       9.40070578       0.08145886      -0.02297787       0.02868000
Hf       7.34684199       4.99636832       9.37753028       0.08145886      -0.02297787       0.02868000
Hf       2.17861122      10.21560527       9.40070578       0.08145886      -0.02297787       0.02868000
Hf       7.34684199      10.21560527       9.37753028       0.08145886      -0.02297787       0.02868000
Hf       3.48750228       2.83248709       1.51798191       0.08145886       0.02297787       0.02868000
Hf       8.65573305       2.83248709       1.49480641       0.08145886       0.02297787       0.02868000
Hf       3.48750228       8.05172404       1.51798191       0.08145886       0.02297787       0.02868000
Hf       8.65573305       8.05172404       1.49480641       0.08145886       0.02297787       0.02868000
Hf       2.61490823       2.83248709       6.77313123       0.08145886       0.02297787       0.02868000
Hf       7.78313900       2.83248709       6.74995573       0.08145886       0.02297787       0.02868000
Hf       2.61490823       8.05172404       6.77313123       0.08145886       0.02297787       0.02868000
Hf       7.78313900       8.05172404       6.74995573       0.08145886       0.02297787       0.02868000
Hf       0.80813443       2.38674975       3.71399201      -0.08145886      -0.02297787      -0.02868000
Hf       5.97636520       2.38674975       3.69081651      -0.08145886      -0.02297787      -0.02868000
Hf       0.80813443       7.60598669       3.71399201      -0.08145886      -0.02297787      -0.02868000
Hf       5.97636520       7.60598669       3.69081651      -0.08145886      -0.02297787      -0.02868000
Hf      -0.06445962       2.38674975       8.96914132      -0.08145886      -0.02297787      -0.02868000
Hf       5.10377115       2.38674975       8.94596582      -0.08145886      -0.02297787      -0.02868000
Hf      -0.06445962       7.60598669       8.96914132      -0.08145886      -0.02297787      -0.02868000
Hf       5.10377115       7.60598669       8.94596582      -0.08145886      -0.02297787      -0.02868000
96
Lattice="10.66589384 0.0 0.0 0.0 10.66589384 0.0 0.0 0.0 10.66589384" Properties=species:S:1:pos:R:3:forces:R:3 virial="-114.35063696147029 0.39423608213641453 3.642494233420601 0.39423608213641453 80.32270689497047 -1.6764248166554245 3.642494233420601 -1.6764248166554245 -46.08142688170057" config_type=low energy=-964.88562838 free_energy=-964.88562838 pbc="T T T"
Hf       5.34633688       0.36275196       0.04017789      -0.55976697       0.36062887      -0.25154782
Hf       2.64178693       3.09325694       0.00726795       0.49523273      -0.90873959      -0.40228691
Hf       2.69691691       4.86524694       2.69700693      -0.70728385       0.10956384      -0.08316028
Hf      10.62464691       2.26347695       2.70396696      -0.17489831      -0.38184955      -0.17464849
Hf       5.28192694       2.19008696       2.65427690       0.35067940       0.81513891       0.32478529
Hf       8.07322687       4.86828693       2.65575690      -2.03584163       0.99477513       1.06206599
Hf       2.65767687       3.07605690       5.34637688       0.16613170      -0.79968718       0.48887843
Hf      10.65084181       0.41673791       5.39106687      -0.15906870      -0.18282997      -0.33727185
Hf       5.36549688       0.36175896       5.36194695      -0.36088170       0.25712109       0.22552366
Hf       7.94986696       3.02206689       5.31661690       0.04208126       0.03927691       1.41361304
Hf       2.60413696       4.96780687       7.99720689       1.18966729      -0.39899385      -0.78246038
Hf       8.03111696       5.07041693       7.92920691      -0.50821135      -1.10003945      -0.55519137
Hf       5.36047687       2.25883697       8.06578688       0.13438878       1.12711071      -0.76833229
Hf      10.65824693       2.28244689       8.06012691      -0.52697477       0.66456673      -0.96371913
Hf       8.00019696       3.20463692       0.02235305      -0.38351557      -1.97464234      -1.15617080
Hf      10.65714973       0.38701793       0.00635303      -0.08093973      -0.08302337       0.02198968
Hf       0.00715308       5.74291689      10.66395371       0.18337370       0.10100915       0.10294136
Hf       2.75982691       8.39030694       0.01280494      -0.80626047       0.75017673      -0.62222333
Hf       2.59086688      10.24649692       2.68328696       0.35725049       0.29372699       0.54632436
Hf       0.08740593       7.52510691       2.66140695      -0.57340516       1.19791482       0.10364278
Hf       5.31551693       7.56592688       2.57634687       0.65905443       0.14474411       1.17975606
Hf       7.96312690      10.18005694       2.65450697       0.93057242       0.83088584       0.78352551
Hf       2.69069688       8.41050697       5.31399693      -0.42418637      -0.10523673       0.12720758
Hf       5.29079691       5.75434689       5.27024693       1.14126681      -0.78800825       0.30432701
Hf      10.61404693       5.77880688       5.30773691       0.46896556      -1.38841058       0.26917340
Hf       8.00655693       8.35406690       5.37983696      -0.64340064      -0.12979741      -0.42918596
Hf       2.67269690      10.29834692       7.99093694      -0.20742720       0.44541380       0.29151084
Hf       5.31115693       7.62154696       7.97717687       0.55239710       0.68302279      -0.25075226
Hf       0.04960494       7.59364690       8.03334688       0.19969017       1.05472171      -0.09140151
Hf       8.03252689      10.33264695       8.01430687      -0.07575919      -0.11550812      -0.53078107
Hf       5.35242690       5.74799695      10.59854693       0.11256710      -0.78564871       0.39725722
Hf       7.97762697       8.41715694      10.62414689       0.92352306      -0.18378366       0.13384822
O        3.81174696       4.60099697       0.79434991      -0.46384128       0.32401623       0.84739362
O        4.13899695       1.93061691       0.89486593       0.46872979      -0.01759636       0.38625633
O        9.16111690       4.61115687       0.92922590       0.60786085       0.94739601       0.27952921
O        9.49030691       1.99440696       0.91821091       0.64819683      -0.12348134      -0.18221710
O        1.51359689       3.33734688       1.78004692       0.43301297      -0.01704430      -0.84992025
O        6.82373693       3.35635691       1.75924693       0.50611075      -0.07182764      -0.08612588
O        6.39065695       0.66289192       1.83190694       0.03066423      -0.11155696      -0.48820388
O        1.10027697       0.64680796       1.77638691      -0.38372464       0.46586502      -0.29748508
O        3.79176696       3.35033687       3.60356695       0.13360540      -0.25589168      -0.38486463
O        4.21015691       0.64464097       3.58298689       0.04883163       0.17669029       0.42254626
O        9.11141693       3.39369693       3.61351695       0.51549439      -0.30278422      -0.34977025
O        9.48243687       0.69752887       3.55407688       0.23246004       0.23249553       0.35195840
O        6.82066696       4.54642695       4.45344691       0.05833943       0.32708989      -0.71409206
O        1.11657190       1.96739697       4.39905693      -0.15064253      -0.41087953       0.21904142
O        1.48001692       4.56973694       4.40148694       0.09936429       0.44996006      -0.21035232
O        6.55143687       1.86232693       4.45428696      -1.33614991      -0.57874447      -0.65766844
O        3.83333697       4.67104693       6.16224694      -1.38864890      -0.38504382       0.86810751
O        9.09264687       4.61085695       6.17225688       0.49373613       0.61388593       0.39259596
O        9.47300694       1.85969693       6.32182695       0.04995158       0.67789208      -0.20099534
O        4.13024697       1.94239696       6.32241688       0.75417639      -0.01082717      -0.36358533
O        1.49119691       3.32619696       7.03956694       0.58984511       1.22730521       0.56425675
O        1.15257793       0.73539695       7.13402687      -0.40734975      -0.34011037      -0.40224963
O        6.51061690       0.75440091       7.15812688      -0.27430826      -0.28142505      -0.67794739
O        6.82395696       3.48137687       7.03928696       0.08667198      -0.27109194       0.55718285
O        3.86850690       3.40389693       8.87611696      -1.20476004       0.65242080       0.42935128
O        4.19787695       0.71708287       8.92157692       0.43487859       0.05549582       0.53556585
O        9.12332689       3.48643687       8.80167692      -0.02289681      -0.17065660       0.92241849
O        9.48539687       0.76682092       8.89146689       0.44286744      -0.03490405       0.76263768
O        1.13812095       1.89846692       9.69952695       0.19140514       0.54012331       0.83858237
O        1.50900693       4.60504692       9.68850695      -0.11465470       0.00566158       0.09444161
O        6.55223692       2.05225695       9.78520693      -1.04686878      -1.17423699       0.05335099
O        6.84143687       4.68967694       9.76622687       0.85390619      -0.01709771      -0.77213439
O        3.81080697       9.93952695       1.01101592       0.24243344       0.02668954      -0.47528161
O        9.11368695      10.02894693       0.89925495      -0.52127047      -0.60991739       0.33646341
O        9.59213687       7.35638697       0.73663089       0.60888855      -0.57576562       1.31454664
O        4.25170697       7.31948693       0.83236188       0.39423448      -0.56610820       0.41200631
O        1.17778090       5.98474695       1.78845697      -0.84902998       0.24436572      -0.63181676
O        6.85293694       8.70491689       1.70566692      -0.00206903      -0.29318527       0.03920875
O        1.56969693       8.65027690       1.81568689       0.21609678       0.10348297      -0.57255825
O        6.53834694       5.98419691       1.71375689      -0.78889356       0.69964215      -0.12116418
O        3.77592694       8.61352692       3.55188696      -0.08543787       0.53769348       0.05344241
O        4.16264697       5.98933691       3.48567693       0.75598822       0.58167641       0.26919951
O        9.16995690       8.69601695       3.58350696      -0.41209424      -0.22484265       0.06298788
O        9.46035687       6.07671692       3.61063694       0.59509843       0.20698977      -0.30681065
O        6.78249693       9.81125689       4.46767692       0.41265172       0.37246366      -0.44802701
O        1.43250687       9.94527693       4.47189688       1.07700366      -0.38328331      -0.74058802
O        6.42975694       7.18386689       4.36378696       0.42258864       1.01676547      -0.35416384
O        1.23979891       7.22464697       4.36790687      -0.96620588       0.01643853      -0.18550828
O        3.72001696      10.05471690       6.24357694       0.34085081      -0.77800431      -0.39996094
O        9.51100696       7.26576687       6.35055692       0.10645794      -0.24734205      -0.25953987
O        9.13936690       9.92873691       6.22952697      -0.62963301      -0.44929985       0.29136863
O        4.19641690       7.38413696       6.26532694       0.16424950      -0.59785653      -0.41555277