324
Lattice="16.22910591 0.0 0.0 0.0 16.22910591 0.0 0.0 0.0 16.22910591" Properties=species:S:1:pos:R:3:forces:R:3:energies:R:1 Time=38500000.01782385 energy=-3251.4093463283693 virial="-7.87997956 4.50812718 6.97785563 4.50812718 -38.75857058 -7.55427689 6.97785563 -7.55427689 6.01268427" stress="0.00011605 0.0010546 0.00163234 0.0010546 -0.00710744 -0.00176719 0.00163234 -0.00176719 0.00336599" pbc="T T T"
O       11.59931613       2.74157708       3.99323623      -0.00048948       0.00018084      -0.00002815      -6.42644305
O       14.88266389      12.91873156       0.21080776       0.00016667       0.00006874      -0.00037110      -6.29377641
O        6.27869873      10.03045675      15.53207684      -0.00030039      -0.00005222       0.00006241      -6.44874379
O        6.24280334       3.69292381      11.25185578      -0.00008892      -0.00011951      -0.00002339      -6.38131303
O        0.76503525       6.41249100       8.87389050      -0.00041935       0.00012618       0.00059319      -6.53482771
O       13.53766241      15.30647007       4.77031068       0.00034541       0.00005268       0.00008032      -6.49133258
O        6.75256499       5.82623182       7.68482007      -0.00079333       0.00019650       0.00001946      -6.78234545
O        7.50236140       1.80797700       6.34935990      -0.00006363      -0.00015682       0.00013696      -6.61051467
O       13.28188979       5.61844246      13.54265129      -0.00005433      -0.00019734      -0.00032414      -6.61019221
O        5.17886672      14.18622306       2.24147081      -0.00017744       0.00006104      -0.00006787      -6.44791451
O        4.66092976      10.96193399       5.97721916       0.00007433       0.00036576      -0.00033219      -6.49601926
O       13.92524938       9.63004150      11.37933222       0.00023638       0.00012332      -0.00035763      -6.34097007
O        5.03886122      14.75103767       6.33129452      -0.00025158      -0.00026566       0.00015901      -6.55652022
O       10.20964493      13.46100105       4.34112896      -0.00021279       0.00036662       0.00026268      -6.61947783
O        9.10808918       3.39976135      14.19816565       0.00071433      -0.00026455      -0.00010219      -6.23884756
O        8.57377027       8.19494313      10.96861428       0.00032582      -0.00043155       0.00023452      -6.66500609
O        5.28149375      11.52077255       1.56959991      -0.00007454       0.00045874       0.00029453      -6.72749522
O        9.72307652      10.34009390       8.11704567      -0.00012438       0.00016770       0.00005733      -6.55132276
O        7.88183848      14.37749338       2.29594984      -0.00029920      -0.00008897      -0.00001028      -6.41848832
O        2.01988399       3.65137881       6.22556998       0.00012906       0.00003695       0.00009766      -6.58713241
O       12.54628076      13.25366958       2.23137038       0.00005219       0.00021105       0.00016573      -6.45015196
O       15.06150189      15.08791416      14.62444332      -0.00002225       0.00023149      -0.00008571      -6.69567462
O        8.53973982      15.86026502       4.91429224       0.00035687       0.00013807      -0.00027699      -7.00952526
O       12.22501768       0.03328521       9.36085723      -0.00027647      -0.00012209      -0.00018625      -6.33971185
O        7.45746164      13.32838027      12.14179746      -0.00025369       0.00015041       0.00050439      -6.51213399
O        0.77152597       0.66273582      13.52038715       0.00044003      -0.00001815      -0.00025320      -6.74380134
O        0.12966807       1.98173936       4.20155527      -0.00020325       0.00033346       0.00001513      -6.53835770
O        8.98109079       2.76450467       4.15331675       0.00020228       0.00026981       0.00026758      -6.41442759
O        2.65561773       6.66432760      13.17005081      -0.00004481       0.00047774       0.00008081      -6.22570054
O       12.16734884      10.91718218      12.88498053       0.00002203       0.00015670       0.00003502      -6.74180604
O        9.19454479      15.61062159      12.05473828       0.00000825       0.00006307      -0.00043485      -6.25441109
O        9.81170832       7.63261571       2.20575647      -0.00000703       0.00005429      -0.00005643      -6.42330620
O        2.86016775      15.50704538      13.88878379      -0.00041037       0.00000953      -0.00014912      -6.30920994
O        3.75751960       8.55378701      14.72858589      -0.00007667      -0.00022219       0.00010860      -6.20268985
O       10.31823956      13.39214190      12.82054760       0.00022787       0.00014691      -0.00010222      -6.72412616
O        2.74691008       5.05543817       3.76999511       0.00059038      -0.00000442       0.00014161      -6.74238290
O        8.23003977       8.33709379       8.12547104       0.00015128       0.00016066       0.00022201      -6.55655076
O       15.63581873       0.57066025       7.88025298      -0.00002739       0.00010326      -0.00035207      -6.36591765
O       15.06301641       7.64624606      15.49127097      -0.00000541      -0.00046668      -0.00069230      -6.38780883
O        3.50807456       4.76889737      11.71534527       0.00024693       0.00007856       0.00007670      -6.50948618
O        7.78544459       8.98617878       1.20599338       0.00014402      -0.00010403       0.00047379      -6.47715473
O       10.31875488       8.47529911      12.92571918       0.00003300      -0.00009181       0.00041809      -6.48140599
O       13.17192635       5.20663672       9.57023078      -0.00039143       0.00024510      -0.00000393      -6.64310200
O        1.65293883      11.97636013       6.62262659       0.00007667      -0.00009173      -0.00018504      -6.79392898
O       15.29927059       2.34189299      10.25694269       0.00014328      -0.00026716      -0.00006886      -6.24049171
O       11.86480139       4.82459967       0.75929118       0.00002608      -0.00008385       0.00027758      -6.51199795
O        6.53573104       2.59025045      13.79557503       0.00023737       0.00021474      -0.00006625      -6.38971922
O        5.25503133      14.09482515      13.87353704       0.00000344      -0.00002353       0.00021696      -6.60160566
O        2.22030647       2.40337094       2.23863036      -0.00004314       0.00052615       0.00017649      -6.29083245
O        1.36260233       4.85931289       1.19434882      -0.00014423      -0.00023355      -0.00018601      -6.46253508
O        5.66095407       5.24490327      13.45881957       0.00011696      -0.00002135      -0.00008445      -6.52777259
O        3.05874992       9.80887498       8.58694885      -0.00024153      -0.00002898      -0.00018262      -6.70592416
O        4.56330932       2.83959639       0.99445459       0.00040070       0.00000677      -0.00017484      -6.45131122
O        2.10024402      14.81353333       6.68609593       0.00002294      -0.00003996       0.00011794      -6.58496340
O        8.81879903       2.15490686      11.98214795       0.00020012      -0.00018548      -0.00026603      -6.37386447
O        6.33342772      13.20893869       4.40475844      -0.00069158       0.00012776       0.00017592      -6.80719620
O        0.94646020       7.68984427       3.98247482      -0.00012266       0.00006293       0.00005959      -6.79173450
O        0.10443870      14.21787698      12.40980891      -0.00007848      -0.00006228       0.00033140      -6.58728640
O        3.87630662       8.90922674      12.24479728       0.00036096      -0.00001158       0.00005390      -6.41031405
O        9.19428545       5.26722121       4.00287615      -0.00007886      -0.00038303      -0.00003538      -6.22104498
O       14.02321176       7.88727752       4.96389321       0.00003831      -0.00001639      -0.00010793      -6.61724312
O        3.49142691       0.09602483       1.61753889       0.00018889       0.00020897      -0.00040948      -6.64374351
O        0.80099432      12.90823968       4.12485228      -0.00031573      -0.00015880       0.00030573      -6.06292414
O        4.93002629       8.44233517       7.32882031      -0.00002428      -0.00043195       0.00004870      -6.29319553
O        4.42191075       2.06716995       9.40157896       0.00001196       0.00027038      -0.00021266      -6.28550268
O       12.68886630       9.27864560       8.63553393      -0.00003212      -0.00022055       0.00017073      -6.58965215
O        5.31095791       7.62012403       0.77640073       0.00030120      -0.00012415      -0.00007063      -6.76302286
O        6.66069424      14.60106692      16.06517939       0.00021671       0.00008325       0.00009364      -6.44104375
O       14.60634114      10.13443555       5.44786254       0.00006801      -0.00040116       0.00002168      -6.51033696
O        2.88643391      13.02281257      12.21665140      -0.00029708      -0.00027001      -0.00013599      -6.42268283
O        8.34336809       5.56602660       9.84640393      -0.00074636      -0.00052924       0.00001088      -6.91302318
O        3.91849756      12.77431328       8.28872317       0.00025083      -0.00041928       0.00010056      -6.33770037
O       13.90200161       5.29888670       3.40797804       0.00003215      -0.00018437       0.00030781      -6.70632280
O       10.21450421      10.92653827      14.85311304       0.00012779      -0.00007865      -0.00006447      -6.71192318
O       14.05296347       4.13600538       5.70542708       0.00008597      -0.00005456      -0.00004291      -6.55562601
O       15.48722103      11.62670663      13.30780573      -0.00001978      -0.00033327       0.00040465      -6.54089094
O        8.75793462       8.76091890      14.94338526      -0.00012459       0.00005312       0.00022967      -6.33576460
O        7.32072246       0.91442366       9.96916980      -0.00014840      -0.00004389      -0.00056062      -6.36395390
O        6.03722415       0.56321934       1.11686146       0.00038238       0.00016543       0.00033514      -6.24509366
O       14.50473360       6.45948337      11.57327207      -0.00021946      -0.00019060       0.00014864      -6.34593004
O       13.04162592       2.51955017       9.04826026       0.00055025      -0.00031834      -0.00011135      -6.59712748
O        5.76358915       0.27986975       3.89130538      -0.00001856       0.00048082      -0.00004234      -6.63580896
O        2.67204834       6.54698147       7.27428069       0.00041134      -0.00024367      -0.00029427      -6.56513926
O        7.55138298      11.21125232       3.59142984       0.00009849       0.00007113       0.00056144      -6.41970065
O        0.90401768       5.44980949      11.17962320       0.00010391       0.00010968      -0.00024945      -6.80124062
O       11.83415606       7.92223882       3.80713345       0.00006436       0.00035533      -0.00014103      -6.34119932
O       13.23601576      13.17418364      13.35424578      -0.00027354       0.00003242      -0.00011094      -6.50424546
O       12.89343192       3.19108576      12.06435217      -0.00003199      -0.00039993      -0.00001610      -6.44680971
O        6.45358740      12.28165023       7.44720272      -0.00025098       0.00007209       0.00057784      -6.76167306
O        4.01376201       2.83800261       4.10697577      -0.00060159       0.00032138       0.00010968      -6.51162778
O        4.34765836       5.02350843       8.89131477       0.00005848       0.00004060      -0.00034606      -6.61387592
O        1.74293813      12.49410860      10.02055136      -0.00011093      -0.00017087       0.00040409      -6.32000683
O        4.65445362       0.51969491      15.05697325       0.00000057      -0.00000756      -0.00008431      -6.21635187
O       15.37268260       3.27792131      13.08031201       0.00018691      -0.00016038      -0.00034658      -6.16289268
O        9.31279049       3.44118983       1.56328487       0.00001358       0.00030159      -0.00003084      -6.67653040
O        3.96259519       3.06818835      14.63025762      -0.00000214      -0.00004061       0.00005704      -6.32252680
O       10.81052841       7.74112832      16.17018615      -0.00004773       0.00042410      -0.00009191      -6.61672721
O        1.44817375      12.89217204      14.33106195      -0.00037638      -0.00020846       0.00027498      -6.48540340
O        1.52914350       7.40129959      15.50747079       0.00006159      -0.00022044      -0.00030482      -6.34373492
O        0.82496136      10.39344445       4.55788796       0.00013420      -0.00035982       0.00000843      -6.13297888
O       11.44839711      12.50142743       7.44315506       0.00000137       0.00028105       0.00003305      -6.68611317
O       14.23717995       3.30287825       1.92280633       0.00010525       0.00018949      -0.00002918      -6.63619124
O        0.90547785      15.29599801       0.04466564      -0.00038496       0.00005067      -0.00009303      -6.88647164
O        2.74234760       7.59574999      10.14645540      -0.00012576      -0.00022699      -0.00018839      -6.32226256
O       15.25295586      11.28957871       8.02880880      -0.00011421       0.00009918      -0.00000638      -6.64966116
O       10.03536292      15.03077973       1.19213098       0.00000834      -0.00024815       0.00022968      -6.68437792
O        1.44478696       1.28850288      10.46561670       0.00004680      -0.00013335       0.00028838      -6.78476724
O       13.97615622       2.07077396      15.39319321       0.00025217       0.00041993      -0.00002852      -6.74686940
O       14.71876005       0.49776366      11.87689904       0.00002691       0.00020843      -0.00001141      -6.70030716
O        9.41559739       5.46160875      15.58410641       0.00035837       0.00000455       0.00007491      -6.43011158
O       10.54224490       6.69346791       8.97461086       0.00013081      -0.00032632       0.00010022      -6.56478275
O        8.87430249      11.46856332       5.89776126      -0.00012590      -0.00032329       0.00017532      -6.60804812
O        4.30903114      11.19069095      10.39451957      -0.00022489      -0.00020759      -0.00000403      -6.28581964
O       15.55295957       0.73260900       1.50337604      -0.00003618      -0.00010868       0.00002997      -6.72217302
O       11.11485837       9.96005515       5.66576176       0.00025288      -0.00001442      -0.00001412      -6.45190362
O        9.67496785       7.32179996       6.25507181      -0.00009079       0.00019564      -0.00017570      -6.73185382
O        6.65720691       4.02948803      15.95364706      -0.00007932       0.00012126      -0.00007738      -6.40956383
O       11.74973383       3.47210333      14.45192386      -0.00016578       0.00010797       0.00029058      -6.51279371
O       11.75717757       3.48461242       7.05812025      -0.00008561      -0.00008759       0.00013130      -6.53919810
O        8.22991791      11.58391006       1.22581203      -0.00045241       0.00021417      -0.00003553      -6.68381774
O        3.90892272       5.50539121       0.16220462       0.00006698       0.00016285       0.00030569      -6.69657479
O        1.17414335      15.84071250       3.08457790      -0.00032168      -0.00028282       0.00006274      -6.68069942
O        5.55489385       6.56972485      10.79760490       0.00032292      -0.00015917      -0.00010086      -6.44962825
O        2.56102406       7.28027375       2.06984135      -0.00079638      -0.00030606       0.00002145      -6.73667475
O       12.43801046      15.84573316      12.40188591       0.00011729       0.00029939      -0.00047193      -6.51546441
O        2.62275486      11.19728770       2.87019372      -0.00004769       0.00008820       0.00017951      -6.65651986
O        7.83263668       1.40338031      15.79596829      -0.00013388       0.00023072       0.00026804      -6.45361218
O        3.73376002      11.10887453      15.10463966       0.00006237       0.00021965       0.00028431      -6.34918768
O        2.57516683      14.87615306       9.37559721       0.00012700       0.00005667       0.00022106      -6.38804296
O        4.00921429       1.47982037      12.33561211       0.00018057       0.00008677       0.00026154      -6.75337228
O       10.36951075       1.18181648      13.89012672       0.00009466      -0.00035807       0.00001453      -6.58911749
O        4.78304190      15.88545210       8.60604011       0.00033705      -0.00011771      -0.00041233      -6.50042425
O        0.99495350       9.95087570      14.84139758      -0.00018133      -0.00011130       0.00038622      -6.13048313
O       14.13561947      13.71140389      11.01252728       0.00021753      -0.00007531      -0.00011205      -6.45232976
O        0.35988931       9.50111839       2.07034667       0.00000443      -0.00016233      -0.00006088      -6.45666826
O       10.67290368       9.95447187      10.50396492      -0.00024187       0.00014216      -0.00011033      -6.49755899
O       11.43166158      14.46725214      14.92758854       0.00020120       0.00036388      -0.00015907      -6.70105375
O       10.74474370      10.24799476       2.43960835      -0.00054675      -0.00011454      -0.00026543      -6.32317321
O        5.07905103      11.64688484      12.93601509      -0.00028245       0.00000038       0.00040461      -6.32331754
O       14.76584409      13.13012750       5.72004125      -0.00037426      -0.00037197      -0.00010080      -6.13517604
O       14.73687587      11.87882418       2.78737099      -0.00032299      -0.00003420      -0.00009532      -6.35522520
O       12.82396607       8.41315624      13.69955373      -0.00018589       0.00012009       0.00017600      -6.70682526
O        9.70706865       1.29379345       8.49864264       0.00068974       0.00030312       0.00006162      -6.75815574
O       13.10013161       6.16280457       7.24703985       0.00024886       0.00039334       0.00071423      -6.79852916
O       16.11715677      15.51217985       5.35895157      -0.00013904       0.00006499      -0.00037656      -6.53933186
O       16.08356005      13.99455194       8.07080272       0.00000879       0.00052527      -0.00023418      -6.71418081
O        3.35240955      13.32490589       4.47759028      -0.00013171      -0.00025634      -0.00016789      -6.64679525
O        1.64386193       4.52590181      15.03522610       0.00031697      -0.00027452      -0.00019977      -6.43452125
O        8.98323676       4.54687271       6.79083707       0.00075817      -0.00021500      -0.00043493      -6.90552805
O        1.92078972       3.91579528       8.85255746      -0.00022893      -0.00037333      -0.00021411      -6.57108111
O       10.60109331       1.44168558       6.03570965       0.00003747      -0.00033904       0.00005984      -6.38842194
O       16.07387994       5.81589396      13.84957300      -0.00033994      -0.00020614       0.00019686      -6.18449775
O        7.81375950      12.39222552      14.71735552      -0.00003245       0.00028858       0.00021293      -6.42072786
O        3.51020487       9.48503152       1.16290108       0.00033106       0.00037697      -0.00014873      -6.53372359
O        1.74020431      10.40409554      12.20389140      -0.00027766       0.00002340       0.00023290      -6.51093609
O        9.60633795      14.95637632       9.69444410      -0.00021727       0.00042512       0.00028028      -6.43790149
O       15.00079492      14.58957057       2.61094834      -0.00001459       0.00049364       0.00000035      -6.37966425
O        2.36499980       1.29061766       7.96542464       0.00009842       0.00030957      -0.00013339      -6.45148341
O        3.31046148      16.02237324       4.75935936      -0.00055263       0.00003600      -0.00016364      -6.50901428
O        1.25929597      11.91854975       0.78262746      -0.00008499       0.00016308       0.00034762      -6.74086531
O       12.13194235      12.44796114      16.11392151      -0.00030850      -0.00007011       0.00002557      -6.53489930
O        6.97307308       9.62671990       5.95203522       0.00008424       0.00022712      -0.00007985      -6.43388685
O        3.23954736       9.32332386       4.65530318       0.00042560      -0.00004318      -0.00005172      -6.60739788
O        8.45522441       6.24947194      12.78433231       0.00027848       0.00029669      -0.00001559      -6.64393399
O       11.90403429       7.15034913      11.02123383      -0.00001947       0.00003130       0.00001228      -6.60744821
O        0.53708831       9.12540320       7.01018382      -0.00011334      -0.00047101      -0.00019354      -6.44723181
O       11.09751689       0.09277427       3.40559970       0.00002626       0.00000987      -0.00058647      -6.75483744
O       15.63101153      11.60678660      10.68416854       0.00014192      -0.00020581      -0.00037502      -6.36584130
O        6.51428337      10.32768520       9.46379303      -0.00047891       0.00040298       0.00034514      -6.40984672
O        7.32499940      15.56702999       7.72722010      -0.00030807       0.00006489       0.00025634      -6.70918562
O       16.05283838       6.46133457       6.17346586      -0.00005453       0.00021718       0.00005801      -6.34300353
O        8.92621017       8.81308936       4.36472426       0.00027144      -0.00017573       0.00077818      -6.54710658
O       11.09742545       1.69639181      11.05309203      -0.00019089       0.00029114       0.00013520      -6.34353588
O        8.41670457      11.70511398      10.47645081       0.00011017      -0.00037465       0.00019178      -6.59295401
O       13.13020613       0.66161870       6.72777271       0.00010105      -0.00017591      -0.00021497      -6.57983512
O       13.86356574       1.47818558       3.77153119       0.00011666      -0.00019987       0.00021105      -6.57795347
O        6.78725925      16.14511753      13.16868842       0.00023750       0.00038014      -0.00021924      -6.48791627
O        4.78005330       4.39920670       6.44574057      -0.00023662       0.00023762       0.00014021      -6.43565325
O        0.57580343       9.05770989       9.80965338      -0.00020863      -0.00002700       0.00007063      -6.40458034
O       10.57137967      15.16058477       7.10206456      -0.00025054       0.00013492      -0.00003101      -6.40878644
O        0.26696697       4.46067273       3.87116572       0.00021464       0.00020784       0.00024072      -6.69546189
O        6.09535714       7.97869423      13.38176085      -0.00013812       0.00008829      -0.00020386      -6.50773069
O        5.64918173       5.08228443       2.59497522       0.00025256       0.00018622      -0.00031110      -6.41585812
O        6.74181002       4.36508356       4.76469289      -0.00004188       0.00003854      -0.00002392      -6.42546178
O        1.94006786       1.83841832      15.92652942       0.00018384       0.00002859      -0.00011266      -6.79248897
O        3.69876550      13.48825043      16.15813010      -0.00021471      -0.00007581       0.00024006      -6.77337628
O       15.64389414       3.77971609       7.86548992      -0.00011037      -0.00012492       0.00017913      -6.78257180
O        7.15369921      10.11799886      12.50840180       0.00006393      -0.00001993       0.00022301      -6.30117716
O       13.45530692       9.66246304       2.47607973      -0.00009442      -0.00013666      -0.00025536      -6.31723630
O        7.17910107       6.53298119      15.43613429      -0.00016631      -0.00003693      -0.00014386      -6.16274829
O       10.74919529       4.82348125      11.78977026      -0.00011009       0.00022733      -0.00011884      -6.95404027
O        5.73696538       9.05267489       3.32584882       0.00049686       0.00038504      -0.00061052      -6.38477897
O       13.48196061      14.20030636       8.15625953       0.00036013      -0.00037603       0.00041640      -6.71622583
O       12.55555501      11.79636864       4.52281544       0.00008256      -0.00012983      -0.00028368      -6.67711397
O       12.34605287       9.80045604       0.13253829      -0.00032749       0.00001403      -0.00035142      -6.20878244
O        6.57197584       3.27239900       8.50177525      -0.00003272      -0.00028484      -0.00051630      -6.56021462
O       11.56606079       1.99352147       1.00274487       0.00055304       0.00030785       0.00002388      -6.70539497
O       13.29854196      11.54407163       9.78404991       0.00012613      -0.00003815      -0.00002687      -6.46657678
O       13.26230411      15.75296173       0.66458981       0.00023262       0.00007918      -0.00029671      -7.01511704
O       14.58465884       7.79402654       9.35304215       0.00057695       0.00013269       0.00041317      -6.43568968
O        4.91334955       6.77347049       5.21769524      -0.00009036       0.00013117       0.00027574      -7.10512832
O       14.64055677       4.82553571      15.88268498       0.00004662       0.00005416       0.00027909      -6.66904664
O        8.78069139      15.45180796      14.79386668       0.00007442      -0.00008193       0.00027976      -6.30570583
O        6.59732707       2.53228319       2.88745030       0.00008243      -0.00003074       0.00014312      -6.16491931
O       13.27796111       7.30618009       1.38229078      -0.00044521       0.00023848      -0.00011309      -6.62627976
O        4.70350021       1.70385024       6.77403936      -0.00034974      -0.00075627      -0.00014395      -6.36284622
O        0.13824652       8.06723069      12.57131402      -0.00044459      -0.00001559       0.00012774      -6.36548935
O       15.79889447       6.65356369       1.57099696      -0.00010148       0.00006550      -0.00008096      -6.54616356
O        8.64993506       0.69506656       2.46449956      -0.00003471      -0.00018233       0.00025136      -6.51178573
O        5.78463420      13.38285870      10.02809091      -0.00002731      -0.00042791       0.00005081      -6.34677004
O        1.76845278       2.91723140      12.80428451       0.00014060      -0.00040196       0.00012843      -6.43666642
O        7.80144799       5.91402961       1.63013500       0.00004370       0.00044666      -0.00046790      -6.44033770
O        4.21214734      15.29049402      11.25117773      -0.00005707      -0.00052647      -0.00034445      -6.63462543
O       14.90369296      10.38653484       0.16497078      -0.00020010      -0.00030479       0.00024847      -6.58390681
O       11.40922612       5.51876641       5.05497318       0.00030933       0.00005191      -0.00010364      -6.61831481
O       10.95276855      12.80447582       9.97805799      -0.00024545       0.00000530      -0.00016132      -6.58419301
Hf      12.81696685       5.22546419      11.58666222       0.00000052       0.00009949       0.00001542     -16.80041342
Hf      15.40972815       0.09677350       3.64458229       0.00014293       0.00023504       0.00017675     -17.24313976
Hf       9.27252103      13.49434846      11.09012711      -0.00015065      -0.00022699       0.00012741     -16.95717444
Hf       0.83756142       5.13394922       7.21753075       0.00024582       0.00022315      -0.00027720     -16.73742374
Hf      13.60559942       1.61597949       0.94281188       0.00028773      -0.00012503       0.00000601     -16.54872886
Hf       0.37110195       2.01980948       8.76563647      -0.00004858       0.00000493       0.00011469     -16.94340579
Hf      16.23098383      11.54386434      15.27792172      -0.00017841      -0.00014454      -0.00026633     -17.10995868
Hf       3.60715241       3.16471822       7.77025459       0.00007292       0.00010387       0.00030990     -17.41266955
Hf      14.69496183      15.34876649       6.86268847      -0.00011403       0.00016288      -0.00009509     -17.58733255
Hf       9.03316122       9.32792783       6.39856621       0.00018782      -0.00010495       0.00037262     -17.53890227
Hf      11.47011026      11.02259743       8.95454277      -0.00007031       0.00031990       0.00015918     -16.84911643
Hf       5.17691872       9.81667947      13.84509835      -0.00008464       0.00020658      -0.00053866     -17.59778723
Hf      14.24241304      14.89899274      12.69707370       0.00032504      -0.00037270      -0.00036322     -16.89510481
Hf      13.84694893       3.71517470      14.25403248       0.00012083      -0.00032328       0.00042733     -17.03272052
Hf      10.68972603       2.91029026      12.70927407      -0.00011799      -0.00020443      -0.00009112     -17.27114289
Hf      13.55790716       4.13601662       7.84710985       0.00009830       0.00006976       0.00044987     -17.06615378
Hf      10.82578836      12.04118851       5.60612264      -0.00011484      -0.00011087      -0.00044027     -16.50042016
Hf       8.82812906       7.17877064       0.33277241       0.00024335       0.00006683       0.00021218     -17.75882328
Hf       2.86209271       9.72727334      10.69924959      -0.00037688      -0.00001700      -0.00011676     -16.77374223
Hf       3.32509456      11.60453076       0.80541477       0.00001325      -0.00018471       0.00013106     -16.85610179
Hf      12.62932503       7.20297746       8.91557708       0.00023074      -0.00027762       0.00043190     -16.78426941
Hf      14.73428972      12.99834788       9.21073508      -0.00034709      -0.00034401       0.00006660     -16.56132560
Hf       8.83550870       9.90468018       2.68496349      -0.00032094      -0.00029500      -0.00041198     -16.79583435
Hf       5.15632857       8.86270090       5.23377147       0.00018859      -0.00000231       0.00003848     -16.75216243
Hf       5.93058738       5.67744695       0.66848343       0.00005536      -0.00015092      -0.00048502     -17.00745100
Hf       4.82491097      15.91072874      13.05840624      -0.00012041      -0.00029663       0.00039516     -16.49818525