324
Lattice="16.06851465 0.0 0.0 0.0 16.06851465 0.0 0.0 0.0 16.06851465" Properties=species:S:1:pos:R:3:forces:R:3:energies:R:1 Time=41000000.02160065 energy=-3252.9259662987924 virial="-19.62884939 -14.47905272 -11.49876882 -14.47905272 8.51174776 -13.77994583 -11.49876882 -13.77994583 12.95634803" stress="-0.00439458 -0.00348982 -0.0027715 -0.00348982 0.00238802 -0.00332132 -0.0027715 -0.00332132 0.00345929" pbc="T T T"
O       13.08752070      12.71163452      11.77207226      -0.00044590       0.00042840      -0.00016941      -6.60524552
O        6.97720983       1.39345095       3.34941408      -0.00044226       0.00028719      -0.00006358      -6.78733975
O        0.89697108       2.85786101       6.48197490      -0.00054521      -0.00008428       0.00024513      -6.60299214
O        0.28732328       1.78203921      12.48019389       0.00002138       0.00024901       0.00003564      -6.41563344
O        0.71527175       2.91016093       9.39430005       0.00009432      -0.00025460       0.00001793      -6.81330843
O        9.09235155      10.13406325      15.55526852       0.00007515       0.00019536       0.00049745      -6.62286476
O        9.93054059       7.97975145       7.50805339       0.00023051       0.00023709       0.00042496      -6.58623941
O        7.60943233      14.21337704      15.48490698       0.00009701       0.00036243      -0.00032708      -6.17631572
O       14.17166106      14.76581448       3.01650539       0.00007064      -0.00065039      -0.00001428      -6.61798287
O        0.24850439       0.20743814       5.05669567       0.00059714       0.00033618       0.00026080      -6.62267618
O        9.77400962       7.56743759      12.47751419       0.00024119       0.00053526      -0.00022708      -6.53075733
O       15.49931536       3.28294587       4.07516423      -0.00036809      -0.00002165      -0.00027700      -6.65544532
O       10.17685243      13.42379120       6.51995383       0.00033196       0.00030697       0.00007126      -6.50733608
O        2.85691634      11.66913724      11.97359544       0.00012654      -0.00023166       0.00012736      -6.60498126
O       12.32382116       3.70375839       3.47707536       0.00019542       0.00014856       0.00015691      -6.31275170
O       10.13739886      12.74743364       4.10743827       0.00017413       0.00004331       0.00056924      -6.60078273
O        1.92513419       1.06711737      14.37431605       0.00001368      -0.00018599      -0.00027842      -6.39636167
O       14.80766515       4.23093443      15.09183174      -0.00010882      -0.00012762      -0.00032757      -6.43706635
O        8.62787039       0.05507712       0.72215400       0.00035980       0.00026312       0.00015771      -6.00254036
O       10.61977211      12.12799249      11.85099870       0.00009455      -0.00020165      -0.00016934      -6.45275483
O        2.00828199       7.92558688       0.41595707       0.00013414      -0.00049343      -0.00064460      -6.57530293
O        2.88165619       4.55193941       5.84571995      -0.00019080       0.00012002       0.00010204      -6.56864787
O        4.55051275       4.37291884      10.33471054      -0.00003867       0.00025783      -0.00010284      -6.77043434
O        2.52790691      13.98123557      10.25892534      -0.00027299       0.00052353       0.00022223      -6.32411887
O       15.92182635      15.52897573      11.70009403       0.00003005      -0.00016720      -0.00043070      -6.30098163
O        8.70890334       1.25850541      10.27440478      -0.00014541       0.00000227      -0.00004172      -6.10719188
O       11.20855990       9.92996513       4.22175018      -0.00009077      -0.00003418      -0.00021298      -6.40608405
O        7.75096206       3.99458271       2.64324135       0.00003581       0.00013632      -0.00032365      -6.13692771
O       13.78795996      15.17179592       0.08352052      -0.00023696      -0.00002626      -0.00005733      -6.65402978
O       11.49105483      14.94116325       3.35614565       0.00029669       0.00031688      -0.00008641      -6.61273010
O        8.09856482       2.83724838       5.76412343      -0.00001336      -0.00016822      -0.00007971      -6.44757809
O        5.56744822       9.46474587       9.50749764       0.00023906      -0.00045741      -0.00021865      -6.15910317
O        1.69486993      10.54736038       4.95251187       0.00018148       0.00007044       0.00001758      -6.55994480
O       11.70385058       9.51503819      10.95166390      -0.00025928       0.00003201      -0.00025927      -6.61175488
O        4.11395876      15.81538403       8.13296342      -0.00003602      -0.00017239      -0.00022158      -6.34196204
O       13.95785205       7.64694699      10.48669162      -0.00036269      -0.00022317       0.00059903      -6.42980273
O       14.41863820       4.64813747       1.74432541      -0.00018446       0.00020794       0.00034666      -6.33030022
O       11.33950073       0.11241674       0.46583032      -0.00029821       0.00026766       0.00000917      -6.35070206
O        5.24254360       5.29517281       7.48912725       0.00009715      -0.00009195       0.00043277      -6.46363772
O        0.29327690      12.36175675      12.14894722      -0.00019868       0.00028723      -0.00000120      -6.79928628
O        2.53324935       1.75033768      11.00611049       0.00036870       0.00007439       0.00008322      -6.40140669
O       14.75873270      14.43698414      13.68318597      -0.00000776       0.00041246       0.00035184      -6.79618687
O        2.71526206       5.20204157       3.28451364       0.00028107      -0.00014265      -0.00009218      -6.59588582
O        0.20337694       5.48691302       6.28008839       0.00016690       0.00005346      -0.00005855      -6.52841072
O        4.24226472      10.09758059       6.43101782       0.00005307      -0.00020809       0.00005653      -6.44989481
O       14.52764162      10.58305421       7.78698799       0.00014624       0.00030198      -0.00010046      -6.71606018
O        6.07666095      15.81166614       1.22590748      -0.00024507       0.00040707      -0.00014263      -6.29771097
O        6.12103438      14.03004516       3.05445931      -0.00013979      -0.00007216       0.00040488      -6.42862710
O       14.01204108      10.13256508      12.72888689       0.00049442      -0.00018532       0.00008997      -6.74852191
O       13.22714672      15.03322407      10.75428996      -0.00007815      -0.00003425       0.00002943      -6.32296320
O        9.88556963       2.19595688       1.89420057       0.00000507       0.00014293       0.00035207      -6.62613261
O        6.78729191       2.91205110       8.50453071      -0.00002787       0.00005628      -0.00026151      -6.85193006
O       15.75892069      13.42835237       1.58256515       0.00003398       0.00019086      -0.00004595      -6.71782698
O       14.71707744      11.15988094       5.00292700      -0.00016970      -0.00005396      -0.00037351      -6.19572669
O        3.99566515      10.87719109       3.57296603      -0.00037214      -0.00035227       0.00037263      -6.14925584
O       15.47338011       8.11482616       7.41048975      -0.00015277       0.00012996      -0.00011003      -6.51798228
O        6.55837352       2.12199633       0.36897720      -0.00069389      -0.00004447      -0.00045698      -6.29663811
O        4.96600162      14.17547964      10.17595318       0.00065506      -0.00012908       0.00042832      -6.32440342
O       12.84225539      12.01735159       3.21940887       0.00012493       0.00037387       0.00014277      -6.50409555
O        5.44118107       8.65942171       3.95587998      -0.00028356      -0.00015905      -0.00009952      -6.66329770
O        9.42247645      14.27882348      12.19045733      -0.00010154      -0.00038465      -0.00041686      -6.18683217
O        1.74741760       9.62838751       7.60217549      -0.00010394      -0.00010884       0.00022921      -6.24036254
O        9.11162642       9.86346715       5.62263567       0.00014137      -0.00005852       0.00027026      -6.29711699
O        4.37064242      11.65194082       8.42709136      -0.00015881      -0.00014937      -0.00030073      -6.48547560
O       15.54089968       9.77292377      10.31608403       0.00017380       0.00005132       0.00017532      -6.90768661
O       13.22003805       8.52913868       5.67922497      -0.00013728      -0.00046834      -0.00008343      -6.19931335
O        5.26238980       8.21922990      16.03460355       0.00012503      -0.00014680       0.00026206      -6.71671937
O        5.58086498      15.48048015      14.44233389       0.00069123      -0.00013907       0.00042028      -6.26525181
O        8.20044586      10.27754680       9.41142800      -0.00033931      -0.00029918       0.00040236      -6.51889335
O        4.04075050       6.86271600       1.75138747      -0.00063093      -0.00025075      -0.00010902      -6.53667055
O        3.79211683       2.05285095       0.42918886      -0.00034521       0.00062137       0.00012308      -6.56789800
O        8.42550360       5.49917274      13.47319505       0.00049927       0.00021354      -0.00006108      -6.12427618
O       14.70007089       4.94745573       9.15979553       0.00040966      -0.00028466       0.00016310      -6.62098585
O        0.08392199      12.38719356       6.90384552       0.00020105       0.00012331      -0.00008255      -6.07101533
O        4.23007732       1.61103717      13.62123509      -0.00000434       0.00032571       0.00037332      -6.19270420
O        8.03818999      14.91610086       5.59276095      -0.00010877      -0.00005166       0.00001584      -6.81898675
O       10.15678211       1.93309605       7.27253971       0.00049728       0.00017655      -0.00020727      -6.59749083
O       10.81936604      10.06351544      13.69292264       0.00062425      -0.00009769      -0.00001947      -6.47835772
O        8.08968383      12.11620528      10.96406737      -0.00045404       0.00006420      -0.00005170      -6.30076693
O       14.33351433      13.89396915       5.34094831      -0.00009373      -0.00019005       0.00005310      -6.51654338
O        4.08999801       7.66985556       8.31191445       0.00011345       0.00017773       0.00035643      -6.87705923
O        6.40414262       4.08576788      14.62841565       0.00001042       0.00020003      -0.00023755      -6.48593823
O        6.04820647       4.89734905       4.72294172      -0.00006902       0.00004081       0.00001075      -6.61997620
O        7.07722568      15.65366118      11.77915195       0.00035289      -0.00002927      -0.00012010      -6.55096471
O        3.75593186       4.01823273      13.51529871      -0.00002873       0.00041581       0.00011384      -6.11205609
O       11.29934728       2.69989758      10.90535957      -0.00010641      -0.00008211       0.00006897      -6.27093134
O       14.51235215       3.31770627       7.03512514       0.00046618       0.00005657       0.00009867      -6.46611858
O       12.11952279      12.82424986       0.42455427       0.00050124      -0.00020272      -0.00007801      -6.47266569
O        2.37386322      14.56785282       4.60251874      -0.00013826      -0.00041871      -0.00001212      -6.41110403
O        7.62479022      12.21169397       1.81050464      -0.00003652       0.00022873       0.00037017      -6.33542836
O        8.77144802       3.01904967      15.20164570      -0.00031648       0.00016578      -0.00030178      -6.23472621
O        6.88717935       0.35011908       7.78688640       0.00003492      -0.00034325       0.00025451      -6.81554683
O       15.27143763      13.66201999       9.71903602      -0.00012799      -0.00001626       0.00012578      -6.75952700
O        9.53033538       6.38969176       2.90895232      -0.00034392       0.00016897      -0.00006837      -6.38758851
O        4.02464139      15.69189119      12.09627413      -0.00004071      -0.00024710       0.00016575      -6.37727124
O        7.14725998       1.50173805      13.65071533       0.00000643       0.00013001       0.00009286      -6.14504002
O       11.93774645       3.45307373       6.34963522      -0.00034261      -0.00006960       0.00003935      -6.40278633
O        3.31994959       7.37722250       5.68179277       0.00041362       0.00025033       0.00011499      -6.43034259
O        2.11367309       2.49861790       4.24406716       0.00020403      -0.00024564      -0.00015023      -6.42933100
O        9.84288633       6.50938995      10.04155433       0.00001116       0.00042620       0.00000190      -6.67612707
O       13.62308697       6.16276593       4.14172363       0.00026933      -0.00007573      -0.00007790      -6.27204418
O        6.16443933      10.17966882       1.86189589      -0.00005906      -0.00014944      -0.00010337      -6.38896930
O        0.53642907      12.95732008       4.22530274       0.00016899      -0.00003446       0.00031886      -6.21973490
O       10.65620682       4.80146985      12.29954838      -0.00020826      -0.00011544       0.00003211      -6.02870001
O        1.63021282      11.21694796       2.26387847       0.00022983      -0.00013101      -0.00004555      -6.39165711
O       13.70782205       1.35423369       4.19103588      -0.00008335       0.00012241       0.00044563      -6.60145760
O        1.70092872      11.87753182       9.34488465       0.00027391      -0.00046649       0.00007763      -6.32547580
O       14.31932610       7.00171768       0.54005399       0.00023188       0.00006398      -0.00002136      -6.42283170
O       12.17652163       0.08260362       8.62630366      -0.00011850      -0.00021447      -0.00014049      -6.77641637
O        9.58852017       4.76564145       0.77623957       0.00019389       0.00036131       0.00006319      -6.26886725
O        3.80486032       0.34777510       2.66291087      -0.00019300      -0.00022545       0.00031279      -6.77261185
O        1.66305573      14.69713414      13.57699501       0.00005732       0.00043385       0.00015304      -6.58136889
O       13.46159583       6.16338280       6.89435086      -0.00018275      -0.00001391       0.00030759      -6.60439588
O       14.59961947       0.90296143       9.66692580       0.00013085       0.00027763       0.00011241      -6.67628328
O        9.32974988      15.59797256       7.95513319      -0.00012092      -0.00001298      -0.00006816      -6.33323814
O        9.75250231       0.81359727       4.12234811      -0.00009962       0.00029611      -0.00021095      -6.36199050
O        1.66373317      11.99242788      15.23971839      -0.00001598      -0.00021127       0.00051320      -6.81743715
O       10.92079045       5.58771037       7.36855741      -0.00000607      -0.00018019      -0.00020847      -6.30694966
O        7.28451690       8.09301889      10.98249036      -0.00020718      -0.00001573       0.00034884      -6.36357506
O        1.14666774       9.22238742      12.29626977       0.00039350       0.00023341      -0.00001847      -6.73864167
O       15.83751167       8.74565486       4.92815591       0.00019982      -0.00005231      -0.00001303      -6.30763450
O        8.57996451       9.92951133       3.25024974       0.00005823       0.00014240      -0.00038000      -6.35039046
O        2.05994289       5.10664845       8.49281655       0.00010400       0.00028968       0.00025487      -6.96567170
O       12.61968755      11.69800566      14.24595135      -0.00000036       0.00034175       0.00016097      -6.48524421
O        7.16392134       8.15211335      14.06824912       0.00046717       0.00016567      -0.00006973      -6.74975121
O       15.11174201       8.46121635      14.20522877      -0.00009686       0.00003168      -0.00017452      -6.52474092
O       13.35467280       8.52540580       2.64246579      -0.00036745      -0.00028410       0.00000244      -6.35778456
O        5.58513960      13.82389834       7.07661442      -0.00028529       0.00025425       0.00050669      -6.56993270
O        8.63028909      14.90007465       3.11537981      -0.00012664       0.00010659      -0.00024086      -6.38482524
O       15.73262504      14.92336736       7.57915439       0.00000617      -0.00004046      -0.00018742      -6.28164541
O       13.34377852       1.91810506      12.23373227       0.00014953      -0.00011994       0.00016754      -6.42816685
O        5.25151601      15.67115495       5.17043921       0.00032305       0.00004944       0.00024410      -6.07528713
O        8.08627073       7.70477485       4.59453506       0.00021515       0.00041618       0.00013559      -6.37716540
O       10.64640234      13.50786276       9.59442258       0.00023445       0.00019671       0.00009088      -6.67617543
O        5.50322141      13.20907297       0.69003485       0.00046427      -0.00010805      -0.00028894      -6.42988848
O        0.34983782      15.81962963      15.83046350       0.00022369      -0.00012577       0.00003894      -6.44448716
O        2.95180073       5.00935481      15.86784586       0.00032043      -0.00003087       0.00012361      -6.37031007
O        5.40976856       4.39961060       1.00595451       0.00013640      -0.00012160      -0.00056518      -6.29706456
O        9.27390947       4.09435238       8.56802896       0.00009304       0.00003108      -0.00048474      -6.15047639
O        9.88796781       7.37362094      15.11253852       0.00010969      -0.00025445      -0.00022415      -6.56409784
O        7.60240450      12.33833655       7.52869085      -0.00005776       0.00007116       0.00021216      -6.13002553
O        6.36919264      11.55310869       4.55655939       0.00015278       0.00044770      -0.00041339      -6.46178970
O       11.76565848      14.50698219      14.03220555      -0.00018174       0.00007212       0.00005185      -6.27474646
O        3.67556819      13.14108705       2.53872766      -0.00002292       0.00001877      -0.00025198      -6.61661833
O        5.20019819       9.51929964      12.31986680       0.00003994       0.00021254      -0.00000476      -6.47570723
O        2.25860381       4.35200629      11.59503201       0.00016789      -0.00036443       0.00034849      -6.52803021
O       15.53604612       6.68168454      12.10161721      -0.00008971       0.00052896      -0.00019060      -6.62818269
O        9.88575012      14.06179620       1.18947270       0.00017282       0.00020594      -0.00035568      -6.23249704
O       13.26140423       4.37348543      12.74723582      -0.00016425      -0.00010712       0.00002949      -6.07620172
O        7.43613994       6.00168704       0.10608285       0.00012410      -0.00048718      -0.00011131      -6.43440726
O       15.85365773       9.86034073       0.00396805       0.00010849      -0.00026095       0.00021095      -6.52809956
O        2.07069167      14.16844736       7.14788945       0.00029701      -0.00050446       0.00066087      -6.45957059
O        8.47163375       4.26585010      11.14464510       0.00017119       0.00007003      -0.00005063      -6.27433460
O       14.61393619       1.33087205      14.51255909       0.00002542      -0.00019278       0.00020795      -6.53282139
O        1.01311007       3.75315008      13.90012768      -0.00009595       0.00010246      -0.00026316      -6.44510193
O        3.19463050      15.35296611       0.08243464      -0.00022435       0.00013697      -0.00024956      -6.77440253
O        0.30150790       6.16215467       3.82226876      -0.00033090      -0.00016098      -0.00028190      -6.43416021
O       12.61051293       3.03982880       0.73570649       0.00009877      -0.00025142      -0.00010499      -6.57857545
O       15.56110826       4.27116328      11.78386175       0.00046078       0.00025269       0.00012953      -6.21026753
O        0.54258632       5.88827217       1.17832068      -0.00026658      -0.00007778      -0.00000016      -6.26995887
O        3.92848261      13.48843087      13.99088881       0.00025007      -0.00010971      -0.00013087      -6.83697541
O       11.01679484       7.05637552       4.88386315      -0.00022926      -0.00014924       0.00001921      -6.53831829
O        2.97002177       0.59088534       5.84656170      -0.00013172       0.00024013      -0.00001007      -6.42971606
O        0.71029849       6.30928145      14.62711801       0.00007316      -0.00012012       0.00007296      -6.36390384
O        5.09590725       2.50984130       6.35187680      -0.00072302      -0.00055829      -0.00012940      -6.84278650
O       13.90641818       0.56143439       6.54219436       0.00003791      -0.00033462      -0.00011425      -6.31665382
O        6.46819099       2.82777497      11.80186608      -0.00008972       0.00009485      -0.00002190      -6.31284595
O        5.80583640      11.22323162      14.80558038      -0.00029696      -0.00000627       0.00002810      -6.64952798
O        3.52460563       8.75255205      14.17028802      -0.00009557       0.00032730       0.00009992      -6.64573410
O       12.57168807       2.59829675       8.77682848       0.00017406       0.00019031      -0.00019321      -6.14795753
O       10.02458068      11.02526582       7.74781705       0.00000140      -0.00017619      -0.00021330      -6.58414488
O       12.08802631       5.98649689       1.66791465       0.00002032      -0.00003584      -0.00032549      -6.32197221
O        9.80679875       4.30537420       4.43827307      -0.00016515      -0.00002115      -0.00008475      -6.47244038
O        2.85235645       9.67950457      10.32903657       0.00018410      -0.00014656       0.00056623      -6.43019378
O        7.83118337      14.02023439       9.42282431       0.00000683       0.00018424      -0.00026228      -6.40550251
O       13.01092314      13.68890799       7.85076962       0.00008788      -0.00013037      -0.00021372      -6.91664130
O        5.13795682       1.12648610      10.19385403      -0.00007529       0.00021360      -0.00005107      -6.44748705
O        6.76697391       9.99841335       6.64297814      -0.00027724       0.00004346       0.00036401      -6.35315354
O        5.60154705      11.88441725      11.03707869      -0.00035346       0.00018588      -0.00025495      -6.38431564
O       11.64841380       1.91125122      14.66041784      -0.00013823       0.00028653      -0.00007155      -6.40964697
O       14.30220822       1.23107636       1.51432403      -0.00006831       0.00055372       0.00037468      -6.68113939
O        6.30484667       5.57181780      12.09364408       0.00017639       0.00012927      -0.00013183      -6.15985555
O        9.05605481      16.01102506      14.21353223      -0.00037366      -0.00020549       0.00017831      -6.16289296
O        8.21215228       5.38535197       6.38674220      -0.00008288      -0.00012143      -0.00012365      -6.69409268
O        9.84452922      12.68894004      14.69394637      -0.00000356       0.00000893      -0.00018198      -6.53294627
O        3.91020028      12.70808278       5.55097358      -0.00005302      -0.00042151       0.00026399      -6.19877305
O        4.44128940       7.24430104      10.99270841      -0.00018206      -0.00044308       0.00049208      -6.34188103
O        1.01275845       0.25489529       2.21531338      -0.00036247      -0.00027149      -0.00008790      -6.97760588
O        2.30543363       8.56298145       3.30227095      -0.00013310      -0.00045436       0.00022185      -6.69749903
O        7.82155931       8.28691117       1.29385325      -0.00001072       0.00000611       0.00039188      -6.29597240
O       14.86115875      12.13063368      15.37375404       0.00008242       0.00003887       0.00020587      -6.62329049
O       15.17582028      10.93982397       2.42549050      -0.00019039       0.00032728       0.00054845      -6.21648696
O       12.26150870       5.31291268       9.87478087       0.00013707       0.00003849       0.00015219      -6.48490674
O       12.41556091       8.25558387       8.56034270      -0.00028171      -0.00021058      -0.00029161      -6.75991166
O       12.42578957       6.77148717      15.17044194      -0.00035426      -0.00004883       0.00000084      -6.26640482
O       12.37078963      11.40625865       6.03930519       0.00007691      -0.00031746       0.00004214      -6.37923486
O       10.29001985      11.25169781       1.44794753      -0.00014985       0.00028920      -0.00013875      -6.52895802
O       10.54732234       8.33262556       1.70632672      -0.00011576      -0.00015377      -0.00044224      -6.42461203
O       11.47199111       4.46237709      14.79978335      -0.00020649       0.00002782      -0.00010954      -6.45743797
O       12.40458707       6.84556407      12.22055493      -0.00008921      -0.00008176       0.00010663      -6.17128407
O       12.62317832       9.72449772      15.92156573       0.00026593       0.00014585       0.00006898      -6.85352745
O        0.05567067       8.13222061       2.12404642       0.00005579      -0.00012284      -0.00019972      -6.22503339
O        9.59593500       2.23804187      12.79065952       0.00029574       0.00039080      -0.00005736      -6.04418157
O        3.36609866       2.43362283       8.25511620      -0.00027892      -0.00016972      -0.00038799      -6.77197221
O        6.48412838       6.36380246       2.77152689      -0.00007658      -0.00000041      -0.00007944      -6.25767786
O        8.12089876      10.35693910      12.75713727      -0.00017606       0.00003441      -0.00078792      -6.54927610
O        1.45255706      15.94428756       9.41310082       0.00020729       0.00012191      -0.00026872      -6.26246659
O        4.67691400       3.09001444       3.17929711      -0.00033888      -0.00025467      -0.00031173      -6.14644325
O        7.43259307       7.76599051       8.03098013      -0.00016765      -0.00005616      -0.00008841      -6.51390576
O       11.01194254       0.06448991      11.38300672       0.00009237      -0.00026708       0.00006312      -6.57162491
O        7.03138830      13.15564456      13.07008296      -0.00007742       0.00011952       0.00053034      -6.56627928
O        2.50307659       6.75485581      12.46343929      -0.00015017      -0.00035970       0.00007526      -6.49963422
O        4.72232560       6.36155922      14.04392880      -0.00006580       0.00026246       0.00012546      -6.43320980
O        1.03819650       2.73201998       0.62402498      -0.00009134      -0.00074858      -0.00017952      -6.58251737
O        7.24763519       5.84861656       9.57710507      -0.00003803       0.00025417       0.00039545      -6.50059088
O       11.52570633      15.66636903       5.97019403       0.00003114       0.00027479       0.00016271      -6.64094101
Hf       3.44304308       6.07999491       7.14643205      -0.00025640      -0.00032217      -0.00013601     -16.36206672
Hf      11.72760691       7.65273935      10.49840328      -0.00027383      -0.00005315      -0.00009324     -17.03824731
Hf       5.52563582      11.78766342       6.60626172       0.00025356       0.00025180       0.00021865     -17.58793052
Hf      11.83174838       7.42398844       6.74680343      -0.00001030       0.00040567      -0.00008588     -17.15302813
Hf      15.26993014       8.65354954      12.13495612      -0.00023254      -0.00008502      -0.00004360     -16.72855232
Hf       6.41256193       4.02262009       6.46808276       0.00023203       0.00005399      -0.00016876     -16.66156233
Hf       8.51411830       9.49683558       7.58234498      -0.00013543      -0.00048196      -0.00001214     -17.13446165
Hf      11.09003073       6.28226899      13.70293762      -0.00038437       0.00002300      -0.00015071     -17.68172657
Hf       3.58829520       7.12773152      15.64830236       0.00010328      -0.00032499      -0.00028899     -16.88460026
Hf      11.57263895       5.48324643       3.57309917       0.00011452      -0.00012051       0.00002568     -17.19338617
Hf       8.72363962       2.52140648       3.72763440       0.00003481      -0.00027540      -0.00002106     -16.76391069
Hf       0.39425311      11.70594262       0.69104338       0.00033500      -0.00039290      -0.00018334     -16.83455215
Hf      10.55129886       3.08681278       0.09935346      -0.00032940       0.00011046      -0.00021169     -16.90337579
Hf      14.03116644      12.26856344       6.73673053       0.00015453       0.00019835      -0.00000695     -16.98042230
Hf       8.28401688      10.38432248       1.35065431       0.00043258      -0.00014128      -0.00003802     -17.36592143
Hf       4.36347944      14.70706397       1.57183388       0.00008108       0.00033981      -0.00006901     -16.49462108
Hf       1.20390006       4.43911321       4.60363578       0.00008859      -0.00002920       0.00023155     -17.36734367
Hf       7.43267464      14.43355539       7.48811209       0.00007465      -0.00029473      -0.00026010     -16.91708543
Hf      14.77803546      12.74955600       3.36693041       0.00063938       0.00021075       0.00011782     -17.37647617
Hf      12.17647659       1.56430001       7.09334626      -0.00038695      -0.00034489      -0.00017630     -16.88685895
Hf       7.13632146       9.64050080       4.70583375      -0.00021568      -0.00020118      -0.00051540     -16.95388183
Hf      11.60165404       3.04157059      12.96043865       0.00037538       0.00005845      -0.00019760     -17.63083639
Hf       9.11227064       8.95467072      13.87442444       0.00042562       0.00001380      -0.00025957     -16.81913214
Hf      14.38089855       8.86849948       8.82971672      -0.00018846       0.00038728      -0.00010538     -16.24332187
Hf       0.36615807       1.12112791      10.48197617       0.00027645      -0.00033409       0.00021556     -17.10669288
Hf       6.83244053      15.59248480       4.13105042       0.00011662       0.00011601      -0.00000436     -16.51775678