324
Lattice="16.26849528 0.0 0.0 0.0 16.26849528 0.0 0.0 0.0 16.26849528" Properties=species:S:1:pos:R:3:forces:R:3:energies:R:1 Time=35500000.01329168 energy=-3253.322118971765 virial="-29.78738767 -3.8155484 21.07363009 -3.8155484 -29.12932516 -4.94528741 21.07363009 -4.94528741 -31.20069795" stress="-0.00302744 -0.00088616 0.00489435 -0.00088616 -0.00287461 -0.00114854 0.00489435 -0.00114854 -0.00335569" pbc="T T T"
O        3.85738546       9.92593933      14.48414878       0.00009116       0.00018799      -0.00005406      -6.30914196
O       11.77284046      15.19897649      15.09258060       0.00008321      -0.00004276       0.00006370      -6.57121001
O        0.44798068       1.16936909       7.05241944      -0.00022660       0.00001639       0.00003894      -6.53790503
O       10.97553420      15.16580405       2.53657042      -0.00011113      -0.00012942      -0.00007111      -6.72216126
O        5.42637516       1.37732479      11.25392142       0.00032407      -0.00010694      -0.00003333      -6.24267180
O       13.89851956      11.52578253      12.12485430      -0.00008051      -0.00014451       0.00008098      -6.51364099
O        9.24476443       4.47158656       9.64081745       0.00024682       0.00010678      -0.00029770      -6.71493661
O       11.65834612       2.58157291       5.77033705      -0.00020040       0.00004935       0.00012213      -6.37730785
O        0.58812269      14.77204957       8.97446601       0.00016177      -0.00012474       0.00008862      -6.71408069
O       12.93129090       0.47769401       1.08019244      -0.00007225      -0.00012575       0.00058505      -6.15294649
O       10.26462730      10.85070875      12.12317733       0.00021338       0.00007441      -0.00001516      -6.43895899
O       15.29432528      12.13579313       7.77546543      -0.00021229      -0.00019009      -0.00002328      -6.51048604
O        3.78500643      14.80506339      11.67083057       0.00014422       0.00025804       0.00000512      -6.17796976
O        3.66602751       3.41099626      12.27148014       0.00026710       0.00017176       0.00034780      -6.29994433
O        8.22813385      10.25080469      13.62848665       0.00010346      -0.00013787      -0.00012720      -6.54738904
O       13.16214492       7.94922202       5.92845323      -0.00010281       0.00010470      -0.00000327      -6.46244714
O        2.13492819       7.48466556       9.53134525       0.00019704       0.00037702      -0.00031461      -6.72987968
O        7.71407030      11.39046321      10.57288597      -0.00007496       0.00017192      -0.00014849      -6.86835989
O       16.09530239       6.26788938       1.31423259       0.00000054       0.00008241      -0.00002653      -6.88444307
O        5.54703719      14.54786214       1.58442225      -0.00007378      -0.00035780      -0.00023261      -6.57405144
O       11.17668875       6.14522289      15.03185763      -0.00005547       0.00007318      -0.00017988      -6.49651786
O        2.56854307      15.61582261       5.66425252      -0.00030716      -0.00015124       0.00008814      -6.99795828
O       15.65204171      14.19021635       1.31368957      -0.00012349       0.00026077       0.00019161      -6.78242936
O        0.51450311       5.27430198       8.10819801       0.00029902      -0.00031024       0.00002507      -6.56602538
O       10.06697336       9.70903268       4.45091444      -0.00033558       0.00020835       0.00016864      -6.58574876
O       15.88726989      11.44866434       1.17853377      -0.00003513      -0.00004849       0.00009034      -6.26326873
O        6.59085671       9.07798109      11.66049202      -0.00030818      -0.00018690       0.00000162      -6.55317562
O        1.22903504      12.92751367       6.57190971      -0.00003593      -0.00004538      -0.00005914      -6.90683732
O       13.57601156       3.41161368      11.55580004      -0.00031691      -0.00003631       0.00008135      -6.60150577
O       10.47675156       6.99339900       8.85743889       0.00028095      -0.00003808      -0.00010530      -6.52112710
O       12.80737109       8.80477473       8.70192228       0.00000252      -0.00010112      -0.00007427      -6.48559029
O       12.23465090       9.03663235      14.42866093       0.00011652      -0.00037603       0.00014081      -6.70579125
O       11.21378175       6.33727282       6.39421098       0.00007144      -0.00013430       0.00029459      -6.50726761
O       15.57158889       7.30771575      10.15557582      -0.00008108      -0.00013143       0.00035838      -6.50392661
O        8.44025727       6.64512776       2.51811174      -0.00047892      -0.00006813       0.00016314      -6.54677679
O       13.49694019      14.56315198       9.62858986       0.00013767       0.00007066      -0.00010877      -6.62477637
O        1.56892613       1.31249951       2.23708829       0.00008244       0.00011321      -0.00003372      -6.38829728
O       13.29217565       1.12251548      14.33949854       0.00056114       0.00002682      -0.00023652      -6.54734151
O        7.94289235      15.80172268       2.85339935       0.00024012       0.00002754       0.00006740      -6.73947120
O       14.50915578       7.12088956       4.00385246      -0.00025888       0.00020767      -0.00007116      -6.60447473
O        1.05055599      14.88800651      14.29027796       0.00009937      -0.00040141       0.00009146      -6.75830045
O       13.52747435      14.69197506       3.13401153      -0.00007932      -0.00035161       0.00020910      -6.40510318
O        6.70937551       8.31690645       1.89409651       0.00039333       0.00002448      -0.00021387      -6.68696201
O       11.30684602       7.22949642       3.60865935       0.00034528       0.00000587       0.00019698      -6.60872512
O        9.33597426       9.66308827       1.65993618       0.00031565      -0.00027347      -0.00007816      -6.61304995
O       12.63550467      12.80925120       7.29589010       0.00003654       0.00005695       0.00022284      -6.45875382
O        3.71552223      16.19220162       2.51002030      -0.00020872       0.00015168       0.00017878      -6.39093256
O        5.25052933       5.10154641       8.82985677       0.00028975       0.00001932       0.00048814      -6.52051714
O       12.03956843      16.03130239       5.04024450      -0.00017383      -0.00022038      -0.00008413      -6.53368035
O       14.74341870       2.53354264       6.23184883       0.00014767       0.00001687       0.00031924      -6.57937701
O        2.69210019       0.26201528       8.47846514       0.00008420       0.00011422       0.00001574      -6.26773153
O        6.52464016       4.69343156      11.24645222       0.00007294      -0.00016819       0.00008306      -6.35298606
O        4.40296012      13.16223654       6.61236245       0.00011145      -0.00036795       0.00010535      -6.63196927
O       11.62311490       4.06552053       8.50505096      -0.00028225       0.00008047       0.00024453      -6.68603757
O        6.99598028      13.35691157       8.30553883       0.00019141      -0.00002424      -0.00024613      -6.97301893
O       11.85527517      10.27152683       6.79442301      -0.00001045       0.00006025      -0.00035840      -6.41407953
O        9.95429798      11.42819633      15.48632937       0.00020120       0.00009892      -0.00056289      -6.69994742
O       13.77271266      12.22200368       2.24668052       0.00041942       0.00014583       0.00013828      -6.33417786
O        6.95721878       1.30612311       6.26432834      -0.00022966      -0.00019163       0.00027543      -6.39609446
O        9.05549501       3.94996324       2.84217523      -0.00005811      -0.00002839       0.00036132      -6.82473092
O       11.94896617      11.51075400      13.92233897      -0.00007142       0.00016142      -0.00054143      -6.35874217
O        5.17491891       5.26978769      13.39323334      -0.00011911      -0.00018374      -0.00028353      -6.11147120
O        3.12246080       5.67344098       7.48966724      -0.00020731       0.00011028       0.00019502      -6.42340135
O        6.50021811      13.66983863      14.34731361       0.00038752      -0.00024704       0.00046082      -6.57581558
O        4.94226460       1.86197890      14.02316815      -0.00003407      -0.00010971       0.00011584      -6.61561402
O        5.74167220       8.08376581      13.97076003       0.00021912      -0.00024458      -0.00013143      -6.41960347
O        5.96089668       0.23863226       4.28816571       0.00017913       0.00027385       0.00036305      -6.59440995
O        7.70998332       1.08875330      14.77385277       0.00014662      -0.00035348      -0.00011381      -6.44598857
O        9.34835022       4.28376803       5.93379982      -0.00007669       0.00009458       0.00001207      -6.69807002
O       14.89926690      15.46939605      12.38884402       0.00003145      -0.00003459      -0.00032273      -6.79097505
O        1.98788400      14.75049629       0.46209160       0.00006229       0.00023141      -0.00018567      -6.41013650
O       14.36378889      10.39893947       6.20812710      -0.00019292      -0.00004448       0.00001798      -6.39707343
O        4.37653440       9.30492545       0.69640347       0.00015549      -0.00000594       0.00061186      -6.55046868
O        9.49296367      14.14427693      13.83091646      -0.00009637      -0.00043380      -0.00021810      -6.58437762
O       11.08095815      15.44567076      10.05048866       0.00042705      -0.00004366       0.00000647      -6.26582883
O        9.71341855       8.30023711      12.60151159       0.00020989      -0.00038087      -0.00010621      -6.50577832
O        0.77159080       1.71900720       4.57173546      -0.00022366      -0.00043193       0.00026770      -6.16900635
O       16.24764522      15.63857538       4.01338802       0.00030287       0.00000405      -0.00029618      -6.35902342
O       10.28812432       2.81246157      11.97024227       0.00072088       0.00003495       0.00018043      -6.41645346
O        7.73605237      14.90174410      16.21617861       0.00000959      -0.00002780      -0.00020144      -6.61241057
O        7.45403344       8.63647007       4.60997146      -0.00008336       0.00013175      -0.00035591      -6.37601438
O        3.29926118       1.84929086       4.73033995      -0.00034554       0.00008124       0.00007385      -6.43676913
O       11.88719725      13.06040690       4.52213809      -0.00022584      -0.00012870       0.00018740      -6.63669944
O        3.04881839       6.91346734      14.07108573      -0.00011911      -0.00002750       0.00021572      -6.29664790
O       15.54347345       9.77011657       3.50513068      -0.00022967      -0.00013582      -0.00026167      -6.41265887
O        4.40420664      13.38114897       3.86236775       0.00014621       0.00000981      -0.00025113      -6.39175920
O        5.94764576       5.20698763       2.61650382      -0.00001248       0.00016565      -0.00053929      -6.50917536
O        4.49737745       1.71781570       7.19456885      -0.00011700      -0.00000323       0.00011522      -6.54352314
O       10.02281654      13.57984332       0.66540412      -0.00013940       0.00004505      -0.00021537      -6.52076472
O        1.35459975       9.26419625      11.65895253       0.00003380      -0.00017269       0.00028555      -6.30568304
O        2.79708625      13.25926329       9.16324359       0.00002652       0.00017598      -0.00026966      -6.70873717
O        7.42373637      12.10490005       1.21859578      -0.00010580       0.00000633       0.00003417      -6.84823026
O        8.30871277      14.85955691      10.82468395      -0.00010521       0.00021529      -0.00005353      -6.56275163
O        9.58780213       8.69585283       6.99353112      -0.00000392      -0.00017831      -0.00003784      -6.72590229
O       15.71036947       0.84215706       0.83064747       0.00028433       0.00019863       0.00015128      -6.28918837
O        2.73456320      11.95959359       1.92143015      -0.00005536       0.00058167       0.00020573      -6.44322194
O        0.15311608       6.56002690      14.60319529       0.00009665       0.00004538      -0.00001909      -6.63726577
O        6.63610702       0.57473223       9.14681663      -0.00009853       0.00005624      -0.00001954      -6.73154365
O        7.20107456       9.24615684       7.65081118      -0.00013314      -0.00018963      -0.00040863      -6.79646285
O        0.89459104       6.59191423       4.06548510      -0.00073410       0.00040917      -0.00011531      -6.38171204
O        4.97504875       0.92236606       0.44782924      -0.00012022       0.00001402      -0.00005108      -6.56042479
O        3.04095958       0.83779317      10.87792343      -0.00000376      -0.00057126       0.00028258      -6.11982117
O        1.09605480      10.99578788       9.62804880      -0.00022035       0.00015590      -0.00013238      -6.74429873
O        0.41788685       1.88913718      11.77819652      -0.00003492      -0.00011259       0.00010385      -6.61586511
O        4.97220532       7.46550205       7.45236186      -0.00032250       0.00006353      -0.00004566      -6.44614274
O        5.15681275       4.10289681       6.12996169       0.00039879       0.00002871      -0.00032833      -6.55926244
O       12.33829992       4.02444398      13.63789966      -0.00011638      -0.00007795       0.00035321      -6.47798498
O        3.08287479       3.68273184       2.39381995      -0.00002292      -0.00009906      -0.00016598      -6.51946768
O        3.54387828      10.58792033      11.35359224       0.00019769      -0.00006462       0.00018281      -6.69069637
O        4.38767274       6.66891640      11.27449483      -0.00011713       0.00000108       0.00025819      -6.58365864
O       11.39379268       4.71178078       3.84990249       0.00016951       0.00008750       0.00003091      -6.47210526
O       10.49563701       7.40905742       1.23449211       0.00027729       0.00025874      -0.00067427      -6.53082202
O        7.33646472       9.42077858      15.98686624       0.00012820       0.00061731      -0.00021932      -6.33322284
O        2.49078902       4.90386652      10.51685223       0.00018993      -0.00030224       0.00009317      -6.10186357
O        0.61444270      10.02997182       5.80344705      -0.00011784      -0.00027645      -0.00002874      -6.50362738
O       11.22342066       4.68752429       1.08128802      -0.00030924       0.00036276      -0.00000864      -6.74636662
O       16.11253880       4.42960026      11.29043944       0.00028066       0.00009724      -0.00017286      -6.34637319
O       15.12513853       8.86828795      14.60020487      -0.00013432       0.00006182      -0.00010824      -6.43397382
O        0.78539129       2.76845250       9.33150229       0.00021478       0.00016607       0.00018964      -6.42617862
O       12.04609028      13.82839260      12.83116944       0.00020661       0.00003372       0.00016551      -6.42982614
O        2.97378332       5.25106343       4.79470228       0.00027365       0.00010508       0.00029102      -6.15923621
O        9.43947422       4.34697140      14.30129984       0.00020490      -0.00037856       0.00001785      -6.24717668
O        3.10308585       6.47035528       1.72390144      -0.00011212       0.00026178      -0.00013205      -6.68021644
O        1.69518526       9.88175648       0.77777123      -0.00005988       0.00000842       0.00029623      -6.53810518
O        6.98565852      11.53209717       5.83857955      -0.00056039      -0.00002947      -0.00033947      -6.79008949
O        5.79661532      11.46404000      12.83640439      -0.00013269       0.00010208      -0.00018659      -6.45649301
O        1.84392426       4.25946359      13.80465597      -0.00006331       0.00003843      -0.00013238      -6.68529510
O        7.28699364       1.67279614       1.33302278       0.00018352      -0.00010174      -0.00014291      -6.37760694
O       12.55846064       2.81924767      16.22269959      -0.00005903      -0.00008569      -0.00002441      -6.53343419
O       11.75424671      15.21820192       7.52244480       0.00024158       0.00008399      -0.00011250      -6.54006038
O       15.28839539       9.03048203       0.84126177      -0.00013735      -0.00036148       0.00013637      -6.40445809
O        4.61263082      15.15797718       9.23570254       0.00013176      -0.00015017      -0.00013329      -6.26572599
O        2.75199227       7.64656420       5.69946276      -0.00000787      -0.00029182      -0.00001391      -6.53438985
O       13.43482622       6.67503492      16.26151888      -0.00005145       0.00014427      -0.00034329      -6.70369102
O       12.47318134      13.01547446       0.23542809      -0.00059536       0.00035975      -0.00019434      -6.41320927
O        7.97121450      14.30152422       5.27600975       0.00023906       0.00037276       0.00024332      -6.75638966
O       16.14171567       7.49640885       6.43564927       0.00015167      -0.00027517      -0.00023363      -6.34471945
O        1.28574385       9.34560531      14.25886492      -0.00012643       0.00005584      -0.00039620      -6.32714575
O       14.48085151       6.11516872      12.92901458       0.00042655      -0.00031449       0.00042812      -6.38050130
O        4.68835953       7.28774367       4.02715225      -0.00003557       0.00010903      -0.00018692      -6.66895231
O       11.89036753       0.09312523      12.50143200      -0.00004199       0.00041316       0.00016287      -6.36995386
O       14.65517999      14.47435654      15.19907753      -0.00015885       0.00012332      -0.00013036      -6.53591463
O       12.02439510       1.77224189      10.43711699       0.00026903       0.00012316       0.00032792      -6.41027304
O       15.71900947      12.93976991      10.37126702      -0.00002125      -0.00007867       0.00011129      -6.62974764
O       13.76629346       4.88423572       3.12950667      -0.00005929       0.00012235      -0.00026867      -6.49337905
O       14.65340646       0.70101594      10.00505299       0.00018226      -0.00000424      -0.00010446      -6.82560027
O        9.98546836       2.09971084       7.87010652      -0.00033721      -0.00011749       0.00003963      -6.23532217
O       10.73146729       2.06806990      14.43302502       0.00009367      -0.00013737      -0.00011893      -6.61193090
O        0.35813726      12.27015198       3.82774783       0.00001971       0.00004320       0.00004533      -6.39266728
O        5.22541974      11.20525808       8.86414041       0.00005401      -0.00007479      -0.00013335      -6.72367895
O        4.23577103       3.52202893      16.13797148      -0.00000198      -0.00011008       0.00008356      -6.43907414
O        9.39900462       8.91237515      10.05961139      -0.00009281      -0.00009600       0.00010381      -6.83783145
O        1.17657327       6.44369149      12.21879454       0.00010493       0.00012735       0.00012180      -6.41512075
O        7.66619543       6.23356082      13.22201875       0.00013197      -0.00016941       0.00030102      -6.48387772
O       14.62271234       3.05514199       1.35673322       0.00001487      -0.00011606       0.00003856      -6.54526965
O        9.95938149       0.65169410       0.50193785      -0.00010903       0.00015278       0.00031207      -6.67774453
O        8.20290078       6.44856088      15.70459612       0.00000261      -0.00005576       0.00040057      -6.48530185
O       11.66778606       2.18708863       2.98047461      -0.00031240      -0.00000642       0.00028603      -6.72057458
O        2.19371061       1.92017692      16.05807288      -0.00035071      -0.00008182       0.00039119      -6.29153332
O       12.30818583       9.05919568      11.54184226      -0.00036415      -0.00025402      -0.00028378      -5.93257031
O        2.22280482       3.14450488       6.90875416       0.00033588      -0.00005291       0.00071209      -6.26022769
O        9.55857929      11.67538508       5.92624403      -0.00006521       0.00006395       0.00007917      -6.72874218
O       15.36827774       3.59670646      14.66332437      -0.00000208      -0.00015213       0.00011779      -6.63392916
O        0.39172715       3.82312517       2.98873686      -0.00061461       0.00061722       0.00005811      -6.65919327
O        7.53841134       2.30738914      12.08372798      -0.00023588       0.00009487       0.00036500      -6.20985693
O       14.44517792      15.52733034       6.37900948       0.00001256       0.00016756       0.00040485      -6.34534780
O        4.53950996       8.77884711       9.65146418      -0.00001250       0.00029225      -0.00023576      -6.39512076
O        7.05249947       3.27035725       4.53059181       0.00006535      -0.00004793      -0.00028965      -6.42846348
O        9.03918218      16.14285514       6.92077711      -0.00009112       0.00010063       0.00009171      -6.46217414
O       10.35261690      13.17482813      10.84253934      -0.00033583      -0.00007991       0.00003885      -6.52513317
O        5.44229714      12.90558354      10.76736718      -0.00020818      -0.00024955      -0.00033243      -6.20436350
O        8.14619178       6.00595107       7.69787759       0.00002027      -0.00055898       0.00023430      -6.81869840
O       14.56417067      13.18940833       5.08405696       0.00026350       0.00001424       0.00040321      -6.56670665
O        7.26711211       6.95062762      10.07607405      -0.00022800       0.00027439      -0.00025066      -6.68712139
O       12.61683499      10.02902406       3.70306698       0.00021633      -0.00013644      -0.00025483      -6.53447289
O        0.49327988       4.39794560       5.59391685      -0.00037046      -0.00038844       0.00033031      -6.18945310
O        6.57516536       6.11863184       5.38555003       0.00017641      -0.00029194      -0.00042309      -6.67346473
O        4.72627827       9.91880916       5.82205101       0.00012384      -0.00053978      -0.00033507      -6.73231058
O       12.46214622       9.25472410       1.22146815       0.00037059      -0.00003881       0.00021826      -6.79791362
O        2.97924826      11.51231555       4.89149736      -0.00000294      -0.00078233       0.00008804      -6.39574309
O        5.13146928       6.29787764      -0.17211990      -0.00012927      -0.00000676      -0.00012681      -6.85200810
O        6.31104596      15.59019632      12.66988686       0.00003245      -0.00006691      -0.00012301      -6.32452465
O        2.22169874       9.24859879       3.55600796      -0.00002624       0.00021427      -0.00005115      -6.71211360
O       14.70907604      11.40961728      15.06300208      -0.00010935      -0.00035037      -0.00023669      -6.84036201
O        8.83720942       1.43830653       9.99011090       0.00034900      -0.00013133      -0.00037092      -6.39738423
O       12.60127867       1.32887197       7.73070608      -0.00024294       0.00065328      -0.00013033      -6.34905292
O       10.94556346       6.12796819      12.28958419       0.00035241       0.00032012      -0.00046160      -6.58085997
O        3.42483986      12.59992868      13.41179835       0.00007985      -0.00030220       0.00015778      -6.50834861
O        4.09350950      15.05830882      14.15514848      -0.00007378       0.00034131       0.00005899      -6.31926468
O        4.05420449      13.14181331       0.08209849      -0.00027621       0.00019196      -0.00021726      -6.56271239
O        2.08540679      14.30628402       3.44793831      -0.00038650      -0.00008856      -0.00004440      -6.35624720
O        2.92544003       9.76453985       7.79563236      -0.00007784       0.00009555       0.00000312      -6.63981001
O       13.46086497       4.90190412       6.08816722      -0.00023984       0.00003124       0.00021748      -6.19987495
O       14.98598457       9.22928788      12.13414091      -0.00018395       0.00003460       0.00008428      -6.56081898
O        0.66174854      11.65979141      12.68267747       0.00001446      -0.00009096       0.00020117      -6.32195283
O       10.71353174      11.75354002       2.59350582      -0.00004414       0.00014553       0.00000492      -6.41449486
O       14.65772538      10.21554561       9.61592396       0.00007795      -0.00014682       0.00018908      -6.48017704
O        0.97954174      15.30126399      11.39884644       0.00060823      -0.00053270       0.00001757      -6.56441776
O        9.58303631       1.19198136       4.75079412       0.00004705       0.00043634      -0.00009657      -6.60913503
O        5.65861366      10.86088010       3.09247953       0.00002219       0.00037451       0.00017888      -6.56596020
O        5.32837030       2.28488397       2.86070250      -0.00065442       0.00019041      -0.00018705      -6.11837355
O        8.99246008       0.20575352      12.67610760       0.00003100       0.00005156       0.00018891      -6.30396773
O        6.77751187       4.04803427       0.39361966       0.00025671      -0.00026320      -0.00008908      -6.43471471
O        9.62567816      13.20217134       8.26569578       0.00006179       0.00027744       0.00001344      -6.89342504
O       14.61938392       3.40562394       8.64560422      -0.00005029       0.00034804      -0.00038445      -6.70460751
O        1.78184534      11.80788218      15.22979884      -0.00010655      -0.00011344      -0.00006051      -6.41171307
O       12.77483063       6.64529359      10.55541582      -0.00007181      -0.00012213      -0.00001288      -6.93903259
O        5.61773672      11.32773529      15.84593806       0.00037375      -0.00006123       0.00005183      -6.27461033
O       15.86446604       0.73073391      14.66663671       0.00026198       0.00034713      -0.00028202      -6.41354962
O       12.35329518      11.87371731       9.71155448      -0.00019968       0.00020768      -0.00010894      -6.64658921
O        6.95101175       3.52802731      14.19240850      -0.00016173      -0.00047020      -0.00000553      -6.44996259
O        9.84776660       8.38967859      15.21777130       0.00002886      -0.00018745      -0.00023302      -6.32445023
O        3.74658915       2.80002162       9.46420063       0.00006761      -0.00018508       0.00026560      -6.49846854
O        7.27416283       3.39933078       7.97477599      -0.00004928      -0.00002890      -0.00022619      -6.54851510
O       14.33553965       1.25093070       3.66940402      -0.00006467       0.00006651       0.00003338      -6.69671284
O        2.42061688       1.05698805      13.45081483       0.00042544      -0.00005566       0.00026852      -6.54780418
Hf       2.56821741       9.70707090       5.77747397       0.00058313       0.00044100      -0.00054634     -16.91996418
Hf       0.24994865       8.10925615      13.05174157      -0.00032916       0.00021957      -0.00040884     -17.50113299
Hf       2.81537915      13.52822443       5.34820292       0.00033118       0.00010722       0.00056866     -16.78076126
Hf      12.92241177       5.30851083      12.11444696       0.00009613       0.00023059      -0.00024645     -16.22377142
Hf      11.86282345       7.81777843      16.02039584       0.00022571      -0.00015472      -0.00035813     -16.89431399
Hf      10.26504195       3.08353867       4.41338942       0.00018673      -0.00015732       0.00003688     -16.91119177
Hf       6.29720783       2.16416411      15.78262428      -0.00045139       0.00027780       0.00004666     -17.35581767
Hf       4.02003998       6.75769053       9.19400225       0.00010755      -0.00009326       0.00009719     -17.30959023
Hf      10.35924911      15.05953259      11.93574266       0.00025315       0.00010716       0.00000466     -17.53974111
Hf      15.88868424       1.95957167       2.53741498      -0.00023148      -0.00018806       0.00006595     -17.19476893
Hf       2.46333997       9.52163698       9.90371308      -0.00008359       0.00026632       0.00030251     -16.89652929
Hf       0.07015677       3.27689629       7.37986354       0.00018731       0.00023480      -0.00056047     -17.64163834
Hf       8.20773771      12.99246204       6.64069505       0.00023427       0.00015671      -0.00000848     -16.07039328
Hf       5.15617250      11.66509348       4.78257932      -0.00028967      -0.00016323       0.00012597     -16.78217000
Hf       7.95741679      -0.03958007       4.98058946      -0.00024469       0.00017821      -0.00020379     -16.89431742
Hf      10.96873217       0.69715231       6.52364695       0.00013127       0.00037804       0.00026853     -17.51226388
Hf      13.48091137      10.97796032       8.06039749       0.00008799       0.00008709       0.00005203     -17.76326933
Hf       2.47914449      15.15424241      10.01550920      -0.00000647       0.00005758      -0.00017342     -17.59643307
Hf      15.35026201       0.74562882       5.53331699       0.00004004       0.00006500       0.00017764     -16.85497262
Hf      12.95719196      14.31374932       5.90650364      -0.00022906       0.00019334       0.00001462     -17.37680957
Hf       5.51969932      10.81318333      10.88972719      -0.00003499       0.00014294       0.00027831     -17.24470518
Hf      11.96276811      13.35795271       2.41881017       0.00017448       0.00025166       0.00037690     -17.26384916
Hf       6.25863603       6.96551509      11.98596435       0.00001665      -0.00037590       0.00005093     -17.42283777
Hf      11.59167439      13.65944182       8.91463875      -0.00019384      -0.00009198      -0.00045848     -17.29634472
Hf      11.02008049       9.02722333       2.77472332      -0.00025073       0.00035099      -0.00029624     -17.17642356
Hf       4.51197343       6.27414583       5.82147716      -0.00031475      -0.00024484       0.00008089     -17.47618052