324
Lattice="16.13331297 0.0 0.0 0.0 16.13331297 0.0 0.0 0.0 16.13331297" Properties=species:S:1:pos:R:3:forces:R:3:energies:R:1 Time=40500000.02084529 energy=-3252.3029400973883 virial="1.74236465 -7.81542362 3.06879839 -7.81542362 8.43512027 -0.4286335 3.06879839 -0.4286335 -3.62953229" stress="0.00107985 -0.00186121 0.00073082 -0.00186121 0.0026737 -0.00010208 0.00073082 -0.00010208 -0.00019945" pbc="T T T"
O       13.58469347       8.17636694      13.19105914      -0.00005274       0.00047455      -0.00001675      -6.54659099
O        4.47607740       3.16865214       1.52065985       0.00027659      -0.00030867      -0.00071043      -6.51390626
O        3.04955024       9.94995340      16.00210017      -0.00022495      -0.00016597       0.00011099      -6.54071380
O       15.63328649      10.33103534       0.87221670      -0.00013831      -0.00024655      -0.00028947      -6.44548651
O        3.47470172      13.59007593      14.52370959      -0.00031461      -0.00033950       0.00002409      -6.45484670
O       11.87578801      11.23201427       1.55910059      -0.00023020      -0.00009581      -0.00035131      -6.28097933
O        4.60561123       5.21321325      15.67213740      -0.00003281       0.00016559      -0.00012050      -6.26403583
O        7.00311567      12.13771230       9.99496416      -0.00090510      -0.00021596      -0.00007865      -6.65127097
O       15.88626849       7.00322088       3.21559759       0.00011835      -0.00010974      -0.00021574      -6.62671387
O       14.95046964       4.67614386       3.81023535      -0.00010934      -0.00021400       0.00016714      -6.67049422
O        1.63180490       9.66429671       8.57144665       0.00024926       0.00003314       0.00000281      -6.60958402
O       13.47265645      13.96799589       4.66072819      -0.00066687      -0.00027897       0.00019551      -6.34405262
O       11.33106738      12.93247407       4.34695956       0.00009459       0.00010182       0.00000464      -6.12407394
O       13.72702153      13.70900240      13.35366440      -0.00029542       0.00038794      -0.00026617      -6.55136567
O        6.60277497      12.07426444       7.06231215      -0.00018303      -0.00042614      -0.00032337      -6.71384332
O       15.20142197       3.71041582      14.62095623       0.00023315      -0.00024829       0.00034444      -6.81542096
O        1.76031035      10.57885160       6.18975927      -0.00032455      -0.00022055      -0.00034025      -6.69945415
O        9.26134649       4.04246178      10.48875391       0.00022892      -0.00003176      -0.00013484      -6.90262629
O        3.54079181      15.97808015       4.26945102       0.00001602      -0.00005147      -0.00008247      -6.33851637
O        6.07352860      13.77139255       3.03355676      -0.00028165      -0.00029539      -0.00012920      -6.50079470
O        8.20193617       4.41171644       1.76939319       0.00042936      -0.00063090      -0.00029709      -6.42480634
O       11.44988872       8.05345686      11.44985585      -0.00014256      -0.00011924       0.00021571      -6.58806844
O       15.90200972       5.73773569       0.67598331      -0.00014850      -0.00011028      -0.00013465      -6.43879647
O        4.64846914       8.03710443       2.30741879      -0.00005660      -0.00004719      -0.00002641      -6.54196646
O        0.35937258      12.79128408       6.59800581      -0.00005753       0.00008481      -0.00037652      -6.02231050
O       13.25811962      11.29345402       9.56599044      -0.00000195      -0.00017240       0.00028242      -6.31837572
O       10.34230994       9.04096322       3.93239333      -0.00019549       0.00020051      -0.00020933      -6.21125204
O        1.31751313      13.63945120       8.86649453       0.00005336      -0.00013135       0.00004453      -6.57931715
O        2.02109218       2.01378079      10.21373352      -0.00044706       0.00000015      -0.00010793      -6.35117816
O       12.86857270       0.75656955       9.38915532      -0.00002133       0.00025569       0.00005266      -6.57708135
O       10.45507588      10.36621413      13.57855209       0.00012666      -0.00008278      -0.00001287      -6.76800429
O       10.73340158      14.84571052       9.26331701       0.00014145       0.00027719       0.00033901      -6.34881098
O       12.79959322       5.31445444      14.05571111      -0.00020841      -0.00003012      -0.00000908      -6.60490972
O        8.00904638       0.02995654       2.25238880       0.00010878       0.00014818       0.00008663      -6.52620851
O       16.10969498      14.77012533      11.35150373      -0.00033303      -0.00027252      -0.00014285      -6.67807466
O       11.08565986       7.75101049      14.09401502       0.00030593       0.00030212       0.00019784      -6.59604529
O       15.31786880       1.67172082       4.40471275      -0.00016216      -0.00070755      -0.00014135      -6.77269412
O       11.15140857      13.13751961      12.72724943       0.00006224      -0.00011822      -0.00052400      -6.78434966
O        1.24910507       7.03735049       8.53566287       0.00010925       0.00026067       0.00014668      -6.51951090
O       11.09730946       4.70874953       2.45543097       0.00001088       0.00009977       0.00035766      -6.20937939
O        6.83811645      11.24819990       1.70684824       0.00019888      -0.00035067       0.00064196      -6.21709383
O       12.31505548       5.79164997      10.30938123      -0.00013291       0.00037442      -0.00021338      -6.42911853
O        2.21727483       8.23997997       3.41234127       0.00009542       0.00027010       0.00010216      -6.25445449
O        1.29338512       4.27023780      12.22704024       0.00039333       0.00002575      -0.00015366      -6.40600970
O        3.26540677      10.86314293      13.73381854       0.00000649       0.00022690      -0.00012428      -6.47448511
O       12.65184793       8.88228788      15.91512743       0.00009772      -0.00008274      -0.00028239      -6.73740471
O        8.62127425      12.21303438      11.86434090       0.00035178      -0.00005322       0.00001457      -6.84430948
O        7.47975747       3.69942039       4.17375855      -0.00004584       0.00014957       0.00010051      -6.62957630
O        9.22595784       9.82552312       0.59537964       0.00001796       0.00012155      -0.00011207      -6.28132477
O       10.64455936      10.69331783       6.51018838       0.00000124      -0.00018036       0.00022857      -6.58632038
O        6.63108941      14.61947078       5.90199238      -0.00031308       0.00037274       0.00020755      -6.43705961
O        4.69008735       0.18898437      14.83068778      -0.00024242      -0.00058349       0.00002998      -6.43191218
O        3.18319446       5.41558634      10.99216011      -0.00016942      -0.00036075       0.00006779      -6.07589576
O       11.83651923       2.29876548      14.70226527       0.00039086      -0.00025830      -0.00012609      -6.64977010
O        4.75057616       6.35537618       8.15862542       0.00019719       0.00012134       0.00028960      -6.58622337
O        4.80119130       0.34984711       1.43000131      -0.00022654      -0.00041103       0.00017104      -6.37103722
O        8.32376749      11.63055298      15.24337773       0.00023283      -0.00000318       0.00039387      -6.57592520
O       13.62238139       8.27949733       9.15856706       0.00003927       0.00000795       0.00018413      -6.43752314
O        5.87090226       1.00526547       3.83632646      -0.00050335       0.00053576      -0.00015380      -6.14435675
O        8.50597731      13.26173541       1.28092328       0.00002162      -0.00007144      -0.00010261      -6.56915636
O        5.62054001       0.79649849       9.07705830      -0.00001524      -0.00015712      -0.00031631      -6.63542169
O       15.79688507       1.11078411      12.17125280      -0.00002986       0.00005719      -0.00009367      -6.61759592
O       12.15878910       2.70526676      11.74044551      -0.00019965      -0.00012157       0.00030892      -6.52421277
O        9.89863488       1.40306105       8.53365020       0.00005170       0.00014736       0.00013424      -6.82363901
O       14.30066040      12.18427207       1.88341790       0.00010816      -0.00003953      -0.00015889      -6.54046876
O       12.21539645       1.42192075       1.80156313       0.00060931       0.00016454      -0.00060349      -6.32385050
O       11.23254580      15.81585518      14.25815895      -0.00007352      -0.00008510      -0.00018449      -6.90377181
O        8.95781015       4.87921405      14.08410247       0.00013193      -0.00008377       0.00003632      -6.27060893
O        3.22828583      15.41767743      10.84650055      -0.00000577       0.00016263       0.00013926      -6.74169162
O        2.93067251      12.52282940       4.32220946      -0.00016771       0.00004552       0.00017987      -6.75727306
O        7.89336356       1.55793682      10.20487189      -0.00024353      -0.00013514       0.00003946      -6.50026736
O        4.70572492       9.25828645      12.60492700      -0.00000948      -0.00044651      -0.00010151      -6.43092721
O       13.21020668       2.98771734       6.84718020       0.00033205      -0.00033237       0.00034564      -6.71392387
O        6.40026806       8.30043516      10.82640556       0.00000860       0.00016182      -0.00025918      -6.61723938
O       13.98332705       3.82530903       0.84449768       0.00000122      -0.00012286      -0.00005268      -6.51194925
O        4.41931189       6.82058792      13.40387133      -0.00002501      -0.00026663      -0.00008503      -6.26007054
O       15.00473104      11.77630234       4.87073851       0.00033039      -0.00051252      -0.00001862      -6.32649458
O       13.96788254       9.04053024       2.43817052      -0.00017631       0.00027475      -0.00027519      -6.63773997
O       14.79295798      14.17532907       8.23950710      -0.00014154      -0.00002975      -0.00005511      -6.55798839
O        4.01051352       4.22482139      13.02538596       0.00022802       0.00015720      -0.00015166      -6.38517805
O        3.04796179      12.86216765      11.10133542      -0.00036769      -0.00006033       0.00012805      -6.55500523
O       13.03229835       6.18529994       0.69554043       0.00014233       0.00005854       0.00013887      -6.40090722
O        3.08923032       2.43094765       7.18115100       0.00022682      -0.00013041      -0.00011130      -6.10409322
O        4.12126505      10.58585750       2.33735937       0.00053221       0.00007472       0.00006134      -6.50411335
O        7.57517447      15.03345534      10.73114001       0.00024453      -0.00012294      -0.00006208      -6.56225009
O        2.40661190       1.39781126       1.96364658      -0.00015976       0.00017198       0.00018988      -6.05111230
O        5.17225945       1.03833867       6.47536248       0.00010061       0.00002256      -0.00022620      -6.51572177
O        9.08311211       9.64974980      11.13421264       0.00016147       0.00006094      -0.00015693      -6.56989836
O        4.71770132      12.81382808       0.83212012       0.00014162      -0.00019892       0.00041554      -6.59394843
O        0.63742948      15.81902286       3.57996748      -0.00048793       0.00006517      -0.00019370      -6.54246647
O        0.61902028      13.09335396       3.27466249      -0.00020104       0.00001732      -0.00032012      -6.49120523
O        9.81353219       2.57119340      13.14393897       0.00006675       0.00016013       0.00018940      -6.35144720
O        7.95012090       8.81346384      13.78436943      -0.00005782       0.00013008       0.00015612      -6.94186779
O       10.79488224      15.73746066       3.67063143      -0.00014683      -0.00002643       0.00000207      -6.42637172
O        6.92950150       6.05922268      15.40017718       0.00040830      -0.00011213       0.00031070      -6.16838716
O        0.84513093       1.93278210      15.02894483      -0.00031632      -0.00023465      -0.00004647      -6.60471103
O       14.88332653      12.15733440      11.50903966      -0.00025097       0.00066008      -0.00017077      -6.23591084
O        1.27147614      10.62537778       2.65622508      -0.00007403      -0.00007366      -0.00012155      -6.46047497
O       16.05878491      13.91243113       0.50261522      -0.00004682      -0.00018923       0.00040734      -6.71251535
O       12.95375188       0.38742236       4.60063223       0.00038110      -0.00018386       0.00019231      -6.28063281
O        8.54701888      11.99802775       5.23516576       0.00024541       0.00012332      -0.00001726      -6.27236399
O        1.66267977       4.58373578       4.14079494       0.00017463       0.00023866       0.00011040      -6.33077915
O        5.37127491       8.97611404       4.73513621       0.00026835       0.00017157       0.00021993      -6.67271828
O        5.41637153       9.80081846       7.59758804       0.00033560       0.00032320       0.00008074      -6.80176886
O       13.02808019      10.83985516      12.54554590      -0.00013937       0.00016012      -0.00009882      -6.44818217
O        8.05132546       9.29718837       6.10890276       0.00041699       0.00003715       0.00012492      -6.60998324
O        8.44930994       4.95173187       7.88354457      -0.00011307      -0.00016153       0.00029837      -6.71946499
O        1.12761446       4.41734812       9.26443023      -0.00027730       0.00014317      -0.00014731      -6.18650380
O        5.22238598      12.56278837      12.34274926      -0.00041234      -0.00013626       0.00009228      -6.62800631
O        6.27512912       3.24180550      14.99843098       0.00014292       0.00029708       0.00008615      -6.36099284
O       10.99710104       3.94903918       8.27937681       0.00024197      -0.00007812      -0.00033979      -6.36519396
O       10.18831197       0.24139197      11.52334661      -0.00023045      -0.00042088      -0.00002125      -6.53892198
O        9.81109837       7.38987278       8.75730237       0.00008176       0.00004655       0.00002217      -6.64383092
O       10.75593910       5.18915556      15.81001666      -0.00008514       0.00029627       0.00024984      -6.42601954
O        6.49097161       3.76836355       8.97358620      -0.00025818       0.00007900       0.00001289      -6.45301016
O       12.34896438      16.06353298       7.06307782       0.00022328       0.00012586      -0.00035234      -6.36865778
O        2.35048217      15.56393424      15.95890515       0.00007443       0.00018330       0.00042211      -6.61960238
O       11.29174038       9.55339001       8.59008989       0.00028861      -0.00000624      -0.00070509      -6.49261864
O       15.22951814      15.08191836       5.93751805       0.00015492       0.00008978       0.00032030      -6.34158001
O        7.75912603      13.92896585      13.61201850      -0.00017935       0.00022707      -0.00002713      -6.58814540
O       11.14739329      13.64635465       1.68466778      -0.00015078       0.00026665       0.00017868      -6.27717308
O       13.44709677      13.99362756      10.42790902       0.00019783      -0.00031273       0.00041695      -6.61129331
O        2.17503074       1.81803509      12.71508210      -0.00020251       0.00026565      -0.00000227      -6.46583936
O       15.38188554       9.46948816       7.31241291       0.00022235       0.00006711      -0.00011725      -6.44054607
O       15.37943849       2.01182879       9.36623904       0.00005072      -0.00010718      -0.00010224      -5.95452647
O        8.42546664       9.79553382       8.73720932       0.00005315      -0.00019764       0.00008607      -6.50791486
O        6.01139644      11.40624394       4.15412929       0.00025213       0.00026835      -0.00024913      -6.73663944
O       13.00180604       3.27450881       9.49737435       0.00005039       0.00012781      -0.00011051      -6.26199242
O        0.36134396       3.29351378       1.84761710      -0.00039460       0.00042890      -0.00027751      -6.70504256
O        3.43217821      12.17714701       8.32529530      -0.00018261       0.00000802      -0.00037125      -6.82954910
O       11.25164357       8.02782265       1.85168377       0.00017274      -0.00002770       0.00046220      -6.48509466
O        2.04323791       5.08464754      14.79235353      -0.00000428      -0.00002726      -0.00007322      -6.46746022
O        4.84454497       2.03031898      11.42546316      -0.00005031      -0.00003605      -0.00003246      -6.33317983
O        9.82804829       7.39809478       6.16672340       0.00042770       0.00003719       0.00002708      -6.76419168
O        6.97395505       6.36513309       5.80081640       0.00025270       0.00022207       0.00012324      -6.52070196
O        5.64108651       8.49444384      14.95355933       0.00054610       0.00040250      -0.00028603      -6.37310530
O       16.11003011       3.41511188       6.85278232       0.00006058      -0.00028593      -0.00023716      -6.38558540
O        1.04187277       0.83639931       6.87293023       0.00014601       0.00010287      -0.00001430      -6.46088266
O       12.86400196       3.21034405       3.99623812       0.00038623       0.00020867      -0.00000835      -6.66136241
O        4.82255037      10.31631621      10.02991327      -0.00028670       0.00002630       0.00019941      -6.51145307
O        5.30416117      13.88148420       8.91193081      -0.00014899       0.00005951      -0.00001287      -6.62719765
O        0.15813858       6.92681166       6.09692731       0.00012982      -0.00025706      -0.00029213      -6.70293018
O        1.07012327       8.23400824       1.01787625       0.00007136      -0.00003063       0.00025228      -6.50676329
O        6.18191508      14.51148267      15.91522244      -0.00008768       0.00024302      -0.00029182      -6.68518251
O       16.03207786      11.56284976       9.17902096       0.00007227      -0.00003478      -0.00020789      -6.52141899
O        1.00090640       6.83406222      11.59019603      -0.00008712      -0.00006016       0.00010264      -6.53943470
O       14.03663357       1.12171509      15.78421033       0.00008914       0.00054963      -0.00022322      -6.60158498
O       14.54805547       6.29970851      11.79635367      -0.00068098       0.00035659       0.00018202      -6.45943688
O       10.71938022      12.77942163      15.29911810       0.00001562      -0.00053336       0.00016129      -6.86580573
O        2.32680602       5.05531261       7.02118132      -0.00058506      -0.00025488      -0.00018996      -6.37397815
O        8.96183650       6.58995686       3.32516620       0.00004396      -0.00019524      -0.00068893      -6.67637352
O        9.32548457      12.42866109       8.14742103      -0.00028789       0.00040558      -0.00001846      -6.13516051
O       10.86647529       5.09797403      12.33434396      -0.00036981       0.00036440       0.00014147      -6.55710038
O       13.59042490      11.11524121      15.01839395      -0.00057988       0.00001129      -0.00012560      -6.74597734
O        2.22521861       9.92010219      11.36389465      -0.00013867       0.00015350       0.00011961      -6.36408847
O        2.98476481       8.09085226       6.24093062       0.00017399       0.00002434       0.00017241      -6.46850268
O        3.42269540       7.53866516      16.16831011      -0.00001045      -0.00039975       0.00052483      -6.10269708
O        7.28479372       0.89468877      12.91646910      -0.00026238       0.00013612      -0.00011553      -6.75668817
O        1.90711252       7.70956274      13.92837477       0.00022080       0.00006065      -0.00027128      -6.47644365
O        5.81364281      11.13143686      15.31762798       0.00042503       0.00024655       0.00038947      -6.37411376
O       13.00272382       6.46865987       3.55432554       0.00035916      -0.00029089      -0.00005067      -6.62729000
O        9.44543586      11.37188076       2.82923405      -0.00004672       0.00043767       0.00012197      -6.41035186
O        3.33149974      14.19059273       2.29425918       0.00023709       0.00017943      -0.00037884      -6.44700250
O       14.34254818       5.23973102       6.34377319       0.00038535       0.00030429       0.00016834      -6.72822613
O        6.98372438       7.31470505       8.56317628       0.00004435      -0.00034650       0.00047139      -6.51952733
O        2.45837563       2.09343504       4.56649817      -0.00004302      -0.00012364       0.00012612      -6.46233528
O       12.90521608      14.95695926      16.02443693      -0.00016645      -0.00015319      -0.00021634      -6.67268402
O       15.74088166       8.95973508      10.73929851       0.00021152      -0.00008334       0.00003503      -6.57129762
O        9.75586250       2.40659720       2.97077668      -0.00004143      -0.00012094       0.00033996      -6.64550375
O        6.76449596       6.07041671      12.55663802      -0.00019306       0.00025632      -0.00004373      -6.49153699
O        5.47306383       3.81908750       6.59219475      -0.00006589      -0.00051621       0.00009091      -6.41782373
O        3.63029034      15.45378960       7.74530997       0.00019768      -0.00011989       0.00007205      -6.47637924
O        3.87699785       3.77829400       9.32103867      -0.00018424      -0.00022343       0.00072585      -6.31223153
O        1.95607426      14.83084145       5.91709403      -0.00010475      -0.00005432      -0.00001086      -6.27689181
O       10.74047552       1.53967394       5.96160998      -0.00013939      -0.00032270       0.00022915      -6.22243529
O        2.08243840      15.33027701      13.21331285      -0.00008693       0.00020538      -0.00011694      -6.37867070
O        4.05494767       5.75869218       4.75689662       0.00030831       0.00016453       0.00000908      -6.48789944
O        6.88045402       8.54095656       1.06524479       0.00003658       0.00014223      -0.00008257      -6.36377398
O        1.88623544      12.40658932       0.15353042      -0.00022500      -0.00011815      -0.00020103      -6.53655445
O        3.54445027       2.39892287      15.41178306       0.00009271      -0.00008487      -0.00000047      -6.62717761
O        5.86895416       5.79415346       1.99029595       0.00045804      -0.00016943       0.00027612      -6.22425646
O        5.52523548      15.15889255      12.37542131      -0.00027073       0.00007175       0.00016189      -6.76801452
O       15.76004810       9.78484534      13.47002457      -0.00028906      -0.00018825      -0.00004933      -6.52721095
O       12.33693627      13.47954397       7.21963983       0.00030970      -0.00025467      -0.00007255      -6.39645826
O        3.45937715       7.71614949       9.83175489      -0.00028292      -0.00001545       0.00025413      -6.52781783
O        6.78684407       2.33565596       1.52321383       0.00000486       0.00009774      -0.00047853      -6.12322496
O        4.84023637       3.22790311       4.12571018      -0.00003952      -0.00008361      -0.00004575      -6.29415335
O        9.09978439       2.97748318      15.81135927       0.00003010       0.00002772      -0.00012919      -6.25910202
O       15.01451820       3.55458604      11.66572693      -0.00000356      -0.00006201       0.00013989      -6.58984451
O       15.73166373       0.84807736       1.51450868      -0.00005471      -0.00001580      -0.00004808      -6.55226553
O        9.32622805       7.07066799       0.52868939      -0.00042311      -0.00042231      -0.00014187      -6.55466666
O        7.31129703       0.88904622      15.47914544       0.00024876      -0.00015096      -0.00011439      -6.58290850
O       12.03075218       6.33926094       7.72848103      -0.00004506      -0.00014919       0.00016236      -6.72497944
O       16.04349596       9.48138938       4.60808082      -0.00017263       0.00043126      -0.00026484      -6.26141358
O       10.07375443       0.27056295       0.71265354       0.00031332      -0.00018934       0.00042808      -6.80020767
O       14.01583834      14.85660276       2.35336250      -0.00006989      -0.00008742      -0.00053200      -6.50513574
O       13.52290674       8.14970745       5.32788075       0.00015905      -0.00058126       0.00013121      -6.91877168
O        7.73337429       8.97746894       3.48362017       0.00027701      -0.00012792       0.00037816      -6.41058582
O        0.36375690      12.70235466      13.86558391      -0.00001670       0.00012086      -0.00008948      -6.49638634
O       15.71290246      15.38532968      14.61772988      -0.00003525       0.00032576      -0.00004129      -6.49026884
O        2.20103612       5.50709889       1.35904509      -0.00028356      -0.00001616       0.00027985      -6.63249836
O       13.47666389      11.28043849       7.00021315       0.00011114      -0.00003484      -0.00020184      -6.37155344
O        8.89228933       7.03149786      11.59454765       0.00004488       0.00021471      -0.00025395      -6.65598690
O        9.79857214      14.79962674       6.18593636      -0.00032812       0.00024718       0.00009551      -6.58831542
O       10.94144829      11.93914809      10.11501775      -0.00020082      -0.00000027      -0.00001049      -6.45338585
O        7.98576280       0.76945454       5.02638646      -0.00005242      -0.00019047       0.00017633      -6.47211248
O        8.55876268      14.17847440       3.77169607       0.00014625       0.00030755       0.00044396      -6.31295560
O       12.52854519      10.37714628       4.39317227       0.00001056       0.00009414       0.00015430      -6.48231203
O        7.75255453       2.20935770       7.07609029      -0.00007446       0.00025054       0.00028275      -6.57010347
O        0.94628605      -0.02348815       9.19924427       0.00027372      -0.00030989       0.00027654      -5.91330560
O        7.15655177       3.67203715      12.67015528      -0.00030644       0.00002529       0.00002528      -6.28908159
O       13.30578349       0.43273812      12.29796567       0.00000394       0.00004555       0.00014818      -6.63843362
O       10.09976481       4.75328006       5.37333627       0.00029197      -0.00018519       0.00031621      -6.59699505
O       14.91544494       5.36516184       8.98869888       0.00033899       0.00032446       0.00020249      -6.59213855
O       15.63193985       6.77841800      14.53106442      -0.00049622      -0.00053334       0.00005735      -6.63294053
O        7.94124976      15.38577322       7.98509035      -0.00021824       0.00053445      -0.00071035      -6.46195501
Hf      11.98765765       0.80327831      16.06641270      -0.00037181       0.00014899      -0.00012349     -16.86095559
Hf       6.40539718      10.36384717       5.92858624       0.00046156       0.00044576      -0.00043033     -16.75033627
Hf      12.61787418      14.95822034       8.78299202      -0.00005974      -0.00035525       0.00005355     -16.81664629
Hf      15.40467319       2.47983418       0.24102722      -0.00009995      -0.00007447      -0.00013075     -16.99669536
Hf       6.47555849       5.49820779       7.52150491      -0.00028259       0.00005938      -0.00035035     -17.07771851
Hf       0.54969371      15.04072497       7.38365776      -0.00008630      -0.00008338      -0.00015276     -17.69053450
Hf      15.95309093       5.14360573      10.81504619      -0.00027257      -0.00043294      -0.00001976     -17.20766195
Hf       1.20537518       8.57752089       6.83819866       0.00007219       0.00021358       0.00001262     -17.20707688
Hf       2.96047256       0.59290833       6.12196757      -0.00002452       0.00019922       0.00014673     -17.43242901
Hf       1.59035358       8.49555497      10.22536261       0.00019543      -0.00044652      -0.00011116     -16.81528597
Hf      14.73183739       9.89951492       9.24403296      -0.00004775      -0.00015153       0.00041044     -17.02416256
Hf       9.71228489       9.07603918       7.32989740       0.00012921      -0.00039289      -0.00013664     -16.87689933
Hf       8.36041398       3.06192584       8.87502183       0.00015513      -0.00034912       0.00015704     -16.95659894
Hf      12.78464114      13.16356832       2.75122730      -0.00010217      -0.00028765       0.00007495     -17.31300358
Hf       9.21138938      15.96497656       9.89660114       0.00018935      -0.00000273      -0.00059880     -17.01631543
Hf       4.95528033       2.58012204       8.17144335       0.00005547       0.00012737      -0.00008292     -17.15040821
Hf      15.47493571      13.34174571      10.02548759      -0.00004242       0.00008536      -0.00010561     -17.15449614
Hf      13.98829354       1.92069237      10.78736688       0.00006759       0.00003809       0.00036285     -17.63693263
Hf      14.96747749      11.54452676      13.43253741       0.00007037       0.00021798      -0.00040808     -16.91628216
Hf       8.24245003       8.10254670       9.94773836       0.00052911       0.00030101      -0.00008135     -16.70625201
Hf       3.72543799      14.14858982      12.50130265      -0.00016612       0.00010819      -0.00016534     -16.71657494
Hf       5.42141350       6.93823040       0.45251961       0.00009462      -0.00001650       0.00020503     -17.85584064
Hf       8.55788526       5.05295204      12.15671172      -0.00012897      -0.00004451       0.00012991     -17.09013668
Hf       5.70029953       4.86125594      13.85699017       0.00010052       0.00021173      -0.00007001     -17.74674338
Hf      11.31329003       1.14003412      12.80422485      -0.00015315       0.00004300       0.00031557     -16.92147639
Hf      11.40771671       7.14781598      16.15794700      -0.00005964      -0.00048814      -0.00050828     -17.28369345