324
Lattice="16.12489533 0.0 0.0 0.0 16.12489533 0.0 0.0 0.0 16.12489533" Properties=species:S:1:pos:R:3:forces:R:3:energies:R:1 Time=32500000.00875951 energy=-3252.569899476638 virial="7.85728383 -17.27844496 26.48315032 -17.27844496 -21.87243578 13.74114446 26.48315032 13.74114446 6.11628614" stress="0.00786839 -0.00412162 0.00631732 -0.00412162 0.00077663 0.00327783 0.00631732 0.00327783 0.00745309" pbc="T T T"
O       11.87528612       4.84039103       6.38323275      -0.00030951       0.00022396      -0.00026351      -6.19116197
O        2.89053808      15.23590763      15.80646179       0.00001557      -0.00002955      -0.00002680      -6.55129010
O        9.31949069       9.53558561       8.64592600      -0.00000287      -0.00005863       0.00018816      -6.27111498
O       16.10495298      16.03564265      12.51717275       0.00031671       0.00028385       0.00009639      -6.22757755
O        4.89700805       8.74908277       1.21993064       0.00000365       0.00009516      -0.00011999      -6.74859115
O        8.20847417      15.96414699      15.19114976       0.00022917      -0.00038332      -0.00058238      -6.57405163
O       16.10121364       5.85400932       8.17214785       0.00043903      -0.00001338      -0.00067145      -6.88861176
O        6.86537065      14.95730522      12.95226294      -0.00016048       0.00008279       0.00031094      -6.33755307
O       10.28195542       8.07582829       1.96993968      -0.00007999       0.00005228       0.00017771      -6.62884379
O        5.22201630       9.88461662       8.49377471      -0.00006606       0.00010641      -0.00030181      -6.24700903
O       16.00118548      13.85293710       6.65571425      -0.00014541       0.00058266      -0.00004640      -6.75236788
O        0.59300110      11.23461807       4.21986254       0.00004504       0.00009794       0.00046012      -6.47615776
O        4.59871660       2.26725023      13.55742725       0.00045411       0.00011119       0.00020033      -6.85355718
O        2.07139800       0.95707926      13.61824270       0.00023546       0.00013134      -0.00045838      -6.39440845
O        2.72699492      12.86059339       0.93402439      -0.00003630       0.00017112      -0.00024780      -6.62330541
O       10.07343201       4.48967613      12.14636023       0.00022387      -0.00008339       0.00015791      -6.53865039
O        5.49965225       9.84088869      14.60284384      -0.00013378      -0.00003270       0.00032586      -6.58482447
O        2.86487042      12.37450535       6.13959071       0.00022620      -0.00026157      -0.00025067      -6.40619542
O        7.55289642       2.94836243       5.02567669      -0.00000394      -0.00007335      -0.00002849      -6.61668515
O       12.97479872      14.43424493       6.87216682      -0.00015118       0.00001873      -0.00007030      -6.89909748
O       14.61381377      15.33682008       1.02376200       0.00041678       0.00005044       0.00046777      -6.45863449
O        5.59974987      16.04360312      10.39217669       0.00006921       0.00030337      -0.00020642      -6.58480348
O        0.70178812       7.42714936       2.09254614      -0.00043782       0.00005620       0.00037862      -6.46706330
O       13.31626233      10.24873747      13.69734060       0.00011380       0.00000827       0.00010513      -6.13036096
O       14.81458713      11.04259806       9.85722095      -0.00017034      -0.00005256       0.00019943      -6.53005144
O        6.51478478       5.31195712      11.63837798      -0.00010869      -0.00054733       0.00028016      -6.09578970
O       12.61955376       7.63284890      15.32322237       0.00003639      -0.00019729       0.00007479      -6.61287570
O       12.05258543      14.00072266      10.54141232       0.00014485      -0.00026011       0.00007169      -6.42785801
O        0.11990931       9.70940240      15.02707913      -0.00008781       0.00036442      -0.00004550      -6.57978815
O       14.23811670       0.79711638       8.78964143      -0.00011658      -0.00005449       0.00022531      -6.45955250
O       14.05926170       6.81158517       6.36425853       0.00061806       0.00007998       0.00009133      -6.56769887
O       16.25073742       0.55495200       7.08391307       0.00039102      -0.00005457      -0.00016063      -6.72414651
O       14.79879551      14.39527647       9.24311726       0.00026965       0.00011229       0.00035482      -6.79323527
O       14.16725255       2.01100210      13.42203443       0.00002983      -0.00017280       0.00018266      -5.68288431
O       16.09289189      10.36221764       1.64328168       0.00000822       0.00001143      -0.00000293      -6.67927339
O       12.40505222       8.56788540       8.33015804       0.00018032      -0.00032394      -0.00047764      -6.42858999
O        6.38208686       6.21942721       1.53236082       0.00023435       0.00031927       0.00012341      -6.69791588
O        7.80697260       3.47991427       2.19449336       0.00029502      -0.00048906      -0.00023182      -6.49963718
O        2.92060349       4.27326686      14.36789180      -0.00002043       0.00006080       0.00039220      -6.65463605
O        1.13007142       2.19182468       2.35567145       0.00031457       0.00003249       0.00017987      -6.54398581
O        9.91988936       1.12810035      13.48847636       0.00031193       0.00001820       0.00045885      -6.38473388
O        5.15219840       4.19713172       3.63390339       0.00003009       0.00053106       0.00003227      -6.53285502
O        0.08665598       5.17939807       3.14129973      -0.00039481      -0.00012879      -0.00020511      -6.34262587
O       15.73471758      11.54046833      12.72342927      -0.00067027       0.00011397       0.00036916      -6.45582913
O        1.00500265      12.63557279      14.67548009       0.00021050      -0.00061248       0.00001021      -6.78003276
O        9.18262611      10.89326394      13.05332294       0.00003156       0.00020937      -0.00036226      -6.41664296
O       14.74518475       2.80486002       2.65590293      -0.00064496       0.00034188       0.00050506      -6.36285612
O       10.83383988      16.20311297       8.15922983      -0.00021767      -0.00012442       0.00027676      -6.75022677
O       11.01359811       1.86030813       6.26504557       0.00011564       0.00025761      -0.00004143      -6.70134684
O        4.29157266       7.88019353      10.08305780       0.00000560       0.00026125       0.00036499      -6.52072345
O        5.51240938      15.66649437      15.37031474       0.00021410       0.00018284      -0.00012987      -6.39159306
O        7.58147964      13.28559853       3.99103270      -0.00002211      -0.00027226       0.00018168      -6.75706511
O        3.56785785       3.94731156       6.72141465       0.00014692       0.00005918      -0.00035027      -6.66847257
O        0.28802097       9.13724911      10.76338745      -0.00002310      -0.00006527       0.00009286      -6.19635805
O       13.29842307      -0.52457415      14.22865919       0.00002963      -0.00000213       0.00014989      -6.08037403
O       12.54176986      11.76934814       8.61911711       0.00035611      -0.00042014      -0.00007950      -6.37951736
O       13.83296630       6.09347859       2.78429189      -0.00049196      -0.00021534       0.00018369      -6.67160561
O       12.66215505       9.31868680      11.29265789       0.00023917      -0.00016886      -0.00018304      -6.66184281
O       13.88154301       4.53014495      13.63818623       0.00013045       0.00008661      -0.00006005      -6.60395123
O        8.03714572      10.49573375       4.61670698       0.00028912      -0.00060750      -0.00018223      -6.37561321
O        3.90411171      15.43910392      12.85391332       0.00012772       0.00030670      -0.00011092      -6.72129985
O        6.85534553       5.91961640       4.96182295       0.00015102      -0.00002879       0.00032676      -6.98863251
O        3.96695634       4.29619424      11.83238271       0.00016301       0.00004434       0.00019935      -6.33172669
O       15.88013008       7.56802985       4.70645865      -0.00001908      -0.00009095       0.00025933      -6.51007244
O        0.18493775      13.13286843       1.65102956      -0.00027412      -0.00016329       0.00018110      -6.37349340
O        9.97898891       2.93968379       3.35012924       0.00017283       0.00002377       0.00004686      -6.19683222
O        5.07355692      13.08793879       2.46431224       0.00010587      -0.00024831       0.00030766      -6.37103908
O        5.51424627       1.32030086       8.22658747       0.00003687       0.00027308       0.00032931      -6.54937055
O        4.04756431       4.78999413       0.67614480       0.00029838      -0.00017941       0.00028993      -6.64514906
O        9.48345673       5.23794824       5.00139495      -0.00000778       0.00021764       0.00005199      -6.40598209
O        1.17325384      15.65055232       1.79983855       0.00037153       0.00001164      -0.00020459      -6.36174286
O        9.13113882       5.33800062      -0.02626916       0.00005745      -0.00009456      -0.00021076      -6.49993304
O        8.22472842      10.34652936      15.36998114      -0.00023887      -0.00036640      -0.00043679      -6.35259554
O       11.19095861       5.27453607       2.66116807      -0.00006471       0.00009165       0.00005162      -6.38271690
O        3.33474366      14.74902860      10.41662177      -0.00069035       0.00030978      -0.00014133      -6.48043660
O       14.07350495       4.58461630       0.56314846      -0.00011328       0.00012999       0.00008332      -6.79073727
O        0.49173869      11.29809393       6.86108666      -0.00005310      -0.00002003      -0.00021250      -6.40356365
O        5.51066382      14.63306401       8.03885535       0.00033694       0.00008988      -0.00018217      -6.31723141
O        7.33582148       8.27052575      12.63009907       0.00010786      -0.00002124       0.00025985      -6.53034403
O        2.85709068       1.53745783      11.16578476      -0.00018441       0.00023810       0.00049333      -6.35012078
O       11.07840748      15.82885248       0.53975260       0.00008505      -0.00001583       0.00004524      -6.86382224
O       15.72128442       5.25706059      11.07721852       0.00012813      -0.00034258      -0.00028679      -6.21380211
O        6.61632053      14.54279382       1.01266824       0.00042552      -0.00018797       0.00018705      -6.33502421
O        6.45513082      11.97634062       7.72663802      -0.00023343       0.00022686       0.00002055      -6.69376735
O       14.09295230       3.49051171       8.48160523      -0.00024804       0.00004173       0.00029320      -6.65450160
O       11.04557912      12.53935909       0.16604215      -0.00032277      -0.00005748       0.00008028      -6.57121075
O        8.59855145       5.99579407      10.29699718      -0.00007092      -0.00012913      -0.00058754      -6.44273939
O        0.75389167       5.12643584       0.22412118       0.00023623      -0.00005833      -0.00021446      -6.79468423
O        9.46398833       3.64872504       7.00808771      -0.00012202       0.00002251      -0.00023090      -6.58604915
O        9.09785205      11.57544049       2.27740158       0.00017966      -0.00043232      -0.00019736      -6.67558976
O        3.20193419      10.97478334       3.73881969       0.00032589      -0.00009866       0.00001708      -6.52996796
O       12.24802406       0.14437475       4.34067042      -0.00015846      -0.00018460      -0.00034831      -6.49229583
O        8.26792904      15.33812599       9.25419173      -0.00060308       0.00033483      -0.00024505      -6.26375811
O        1.27527198       3.52831694      11.42194884       0.00024098       0.00032549       0.00012743      -6.02333996
O       10.61660425       9.53196990       4.42055568      -0.00050655      -0.00010407      -0.00010756      -6.37355354
O        7.32824367       0.25877570       5.01338619      -0.00066752      -0.00000825       0.00050983      -6.51308178
O        2.03034403      -0.29502527       4.94418446      -0.00037474       0.00029353      -0.00017562      -6.42333748
O        9.62483282       0.37080345       3.90582690       0.00021542      -0.00045888       0.00031789      -6.40295647
O        0.80406281       1.22159369      16.13151091       0.00031426      -0.00002364       0.00015584      -6.06646452
O       14.94792856       8.37171162      12.86401778       0.00013692       0.00004482       0.00037699      -6.71581790
O       13.32419075       9.23544409       5.67159251       0.00011820      -0.00009580      -0.00016854      -6.25196813
O        2.53755747      15.06552674       7.61910379      -0.00015678       0.00027472       0.00001141      -6.67289115
O       11.68142705       2.50992107      11.91917182      -0.00021132       0.00001855      -0.00015116      -6.42067050
O       15.39728756       2.15410278      10.72685855      -0.00003486       0.00061318      -0.00014771      -6.05791714
O        2.26258764       8.56376188       4.34580192      -0.00007070       0.00018519       0.00020553      -6.48881124
O       11.87904936       6.35120410      11.79972172      -0.00030372      -0.00057175      -0.00011325      -6.82389267
O        8.78663020       1.01649530       1.36150196       0.00016636      -0.00012421      -0.00045883      -6.28700663
O       11.38174694       4.24428739      14.37078657      -0.00018320      -0.00003831       0.00024695      -6.53192800
O        4.99957459       7.51798260       6.73984220      -0.00016450       0.00021452       0.00004432      -6.48458620
O        4.42935391       9.85999946      12.07021842       0.00010029       0.00012870      -0.00042329      -6.20050119
O        8.14654543      12.87721949       0.02011086      -0.00027562      -0.00009391      -0.00008660      -6.33969624
O       15.42602796       0.41277106       3.53673922       0.00009564      -0.00032020       0.00022538      -6.42148306
O        5.94571843       4.63865136      14.21376915       0.00000197      -0.00025372      -0.00001706      -6.81598910
O        4.66418793      14.78246379       4.68395305       0.00025233       0.00027436      -0.00008742      -6.43245465
O        2.28631223       4.55924359       3.93939786       0.00032534      -0.00004199      -0.00036001      -6.52932623
O        6.13771041       2.25832791      -0.02143613       0.00004131       0.00006255      -0.00028927      -6.35125192
O       12.85002717       0.93676109       2.06643034       0.00001559      -0.00032861       0.00032721      -5.91101273
O        2.38243426       9.65237622       9.22668079      -0.00014424      -0.00017228      -0.00003549      -6.35108157
O       11.83962220      10.75615783       2.29669902       0.00007913       0.00040222       0.00048710      -6.16452513
O       11.93192978       1.59822399      15.05256626       0.00005574      -0.00015293       0.00017663      -6.55057876
O        3.33424358       7.02940860       2.61049099      -0.00039285      -0.00012867       0.00014670      -6.68272815
O        2.83790929       6.45745537       8.42191315       0.00027419       0.00021201       0.00017517      -6.48341296
O        5.22087718       5.08164830       9.21207645      -0.00013842      -0.00009448      -0.00016909      -6.47898447
O       11.13358110      15.10900442      12.97540833      -0.00013866      -0.00039613       0.00000127      -6.24687322
O       13.90935417      13.00552399      14.17883174      -0.00023341      -0.00028812       0.00016429      -6.33077534
O        8.59352359       6.17240588      13.51101152       0.00024365      -0.00016712       0.00016674      -6.22533297
O        0.08580297      15.03422387      14.82586542      -0.00013069       0.00055783      -0.00033622      -6.32331885
O        1.32811292      13.84736246      11.95392975      -0.00000892       0.00009443       0.00038578      -6.57208850
O        1.78210845       2.41367438       5.31285379       0.00010965       0.00047787       0.00022233      -6.38394610
O       11.92123322       7.01374183       4.79989858      -0.00013569      -0.00032053      -0.00038000      -6.55767879
O       14.40653315       1.71039082      15.99446788       0.00018358       0.00002015      -0.00022403      -6.61249092
O        6.58103241      13.33964354      10.52028329       0.00001053      -0.00012560       0.00004782      -6.33696803
O       13.34553895       9.89377712       0.12297610       0.00003325      -0.00027806       0.00003475      -6.81070537
O       10.25684667       0.41172588      10.91787744       0.00026785      -0.00021606      -0.00012244      -5.79883025
O       11.52748065       2.66340686       9.16567795       0.00018109      -0.00011197       0.00006903      -6.34465578
O       12.35085021      14.14112833       2.44157932       0.00007401      -0.00048798       0.00030953      -6.68871869
O        3.44353984      12.51708924       8.77613248       0.00021159      -0.00013789       0.00020341      -6.52137024
O       14.44113734       7.19310231      10.38846504      -0.00021472      -0.00001724      -0.00022494      -6.45398489
O        0.69570562       3.09256925       8.02078824       0.00008185      -0.00012758       0.00044269      -6.52388375
O       11.21977526      10.71024980       6.81305514      -0.00005426      -0.00000015       0.00009472      -6.18544712
O       10.97185675      10.24187638      15.04912440      -0.00011631       0.00002341      -0.00015967      -6.03269609
O        0.52974843       2.92853997      13.72567555       0.00011120       0.00050829      -0.00014685      -6.40323302
O        3.63598265       9.91121300       6.54067632      -0.00003074       0.00049597       0.00039903      -6.41351114
O        4.82410315       7.02812837      15.07933873      -0.00036593      -0.00011074      -0.00000805      -6.35226956
O        0.92000699       0.20374652      10.08368344       0.00016274      -0.00028756      -0.00030064      -6.37733773
O        3.59331629       1.82449163       3.11853121       0.00009940      -0.00019446      -0.00021147      -6.59674741
O        7.96079615      13.89578421       6.50773744       0.00008868      -0.00020676       0.00002378      -6.60279911
O        2.40892213       7.69853741      15.62307094      -0.00034414       0.00006253      -0.00018953      -6.62431360
O        8.77564739       5.87755579       2.46641448       0.00005717       0.00028370      -0.00005085      -6.51835216
O       11.36133455      12.30718736       4.50699970      -0.00042422       0.00012330       0.00038492      -6.31809098
O        2.14074406      13.39177241       3.55065912       0.00016974      -0.00002817      -0.00021163      -6.40987012
O       10.15367910       7.61146068       7.02063158       0.00024206       0.00001029       0.00027704      -6.37379801
O        6.72998155      12.25033108      13.11224111       0.00027818       0.00054655      -0.00008941      -6.07283972
O        2.82860244       4.02568709       9.32884943      -0.00041987       0.00001919       0.00005140      -6.47837294
O       13.24448116       0.51095160      11.27868044       0.00042283      -0.00015296       0.00021865      -6.46677184
O        5.17686837      13.02630219      15.14675613      -0.00009565       0.00000760       0.00012323      -6.64638900
O       10.48695574      13.30775657       8.16769706       0.00001690      -0.00014468       0.00019209      -6.30845585
O       13.54471852       4.05604584      10.96536710       0.00058790      -0.00018666      -0.00068095      -6.57620301
O        7.30817349       7.74967628      15.30490418       0.00016256      -0.00010351      -0.00003570      -6.32910571
O        9.78438855      14.22071208       2.87479809      -0.00013185      -0.00002529      -0.00020220      -6.34064623
O       10.42009126       7.55669678      10.03877263       0.00013093       0.00010851       0.00027939      -6.45406771
O       14.07865673      11.76638897       3.50822614      -0.00022435       0.00037018       0.00002950      -6.46624700
O        8.63297391       8.01918070       4.47361255      -0.00008868      -0.00012675      -0.00019063      -6.24383103
O        9.82208439       7.92401471      15.51872869      -0.00012582      -0.00007210      -0.00015710      -6.56672259
O        8.01362081       3.21499521      13.01608195       0.00013940      -0.00004971       0.00024724      -6.28685933
O        6.99330895      10.49183135      10.78898449      -0.00018777      -0.00014798      -0.00032464      -6.54656064
O       13.78435812      12.32358628       0.82057657       0.00020879       0.00009456       0.00080941      -6.68104356
O       13.56315864       9.05415900       3.12386038      -0.00005133       0.00016934       0.00034735      -6.71312379
O       15.14754807       2.86657436       5.30392215       0.00025713      -0.00024620      -0.00035396      -6.71944342
O        0.53661571       6.10455164      13.40672757      -0.00030850      -0.00017275      -0.00024315      -6.41045712
O       13.06961907      11.85842045      11.67958818       0.00012773       0.00001961       0.00000217      -6.21924483
O        5.36716257      11.93560527       5.45643998      -0.00045685      -0.00011489      -0.00043149      -6.73835075
O       13.57994115      11.79575046       6.10023317       0.00005637       0.00021926      -0.00005584      -6.55837785
O        8.90287664      13.67697694      13.88307870      -0.00017418      -0.00012465       0.00020881      -6.15532720
O        6.39275813      11.19851679       1.38371434       0.00013411      -0.00023587      -0.00020080      -6.18721836
O       11.76144545       3.50861216       0.88917283       0.00031164       0.00006329       0.00002638      -6.29807866
O        8.73071128      11.21542397       6.96248200      -0.00044860       0.00060884       0.00032036      -5.80612948
O       13.75476190       0.81533504       6.25474204      -0.00047705      -0.00023224       0.00017296      -6.65180671
O        2.02461181       6.97517996      11.03481135      -0.00007803       0.00015271      -0.00011260      -6.57774964
O       10.45883770      11.12768704      10.79471723      -0.00011626       0.00018081      -0.00019765      -6.09543929
O        5.42274826       8.75157307       4.08361478       0.00012606       0.00007711       0.00038343      -6.61905644
O       10.24051192       8.52308863      12.68428071       0.00014359       0.00001160       0.00007684      -6.48862736
O        7.93978401       0.90016588      11.60255929       0.00019296       0.00015633      -0.00020273      -6.23774120
O        4.18691498      12.76944475      12.06729099      -0.00033882      -0.00001714      -0.00003756      -6.72174271
O        4.07267326      15.74479418       1.94732018       0.00036002      -0.00016259      -0.00007362      -6.47676902
O        4.77793535       1.56894639       5.47763055       0.00035404      -0.00007543      -0.00026113      -6.71711365
O       12.71220601       6.01555975       8.82775962       0.00005169      -0.00006790      -0.00001982      -6.72432408
O        7.57763817       8.76474288       6.95981739      -0.00016787       0.00032700       0.00015699      -6.34875052
O       14.46240626      14.12904966      11.76701189      -0.00007403       0.00032006       0.00014661      -6.44670297
O       15.30807129       7.58061235      16.19876251      -0.00054806       0.00061848      -0.00001964      -6.69833992
O        2.99310899       1.50531270       8.31858634      -0.00031537       0.00001779      -0.00011858      -6.47896270
O        2.42268434       9.90701600       1.51963180       0.00004027      -0.00009981      -0.00002754      -6.52393192
O        7.77007294       8.80078525       1.71775384       0.00042192       0.00003527       0.00021024      -6.71416596
O        9.23081163      13.93057338      11.26112949       0.00021132       0.00006493       0.00013394      -6.21285408
O        8.68073496       2.84496589       9.82013647       0.00017664      -0.00036666      -0.00041596      -6.49541287
O        8.09755121       1.24943407       7.77154418       0.00034964       0.00000105      -0.00003771      -6.43620440
O        6.49407330       0.90718916       2.61760493       0.00054187      -0.00036166      -0.00046596      -6.72137467
O        3.15328600      10.70050428      14.44783905      -0.00032647      -0.00008957      -0.00007606      -6.58810875
O        2.05068934       8.75208328      13.09796321      -0.00009904       0.00000645       0.00007347      -6.34054608
O        1.37768349       6.02888954       5.95242017       0.00002472       0.00000684      -0.00012210      -6.53327073
O        8.42525593      12.03900647       9.38922106       0.00000013      -0.00046231       0.00009077      -6.23494226
O        2.07455614      11.02238703      11.70722744      -0.00025453       0.00015421       0.00001624      -6.30888600
O        4.86268693       7.43505597      12.63847224      -0.00036057       0.00026259       0.00028043      -6.17455645
O        7.17275443       8.26355254       9.58697370       0.00001043       0.00012686       0.00015425      -6.40388651
O        9.38975463       2.92772813      15.79975998      -0.00022588      -0.00015569      -0.00041689      -6.31943053
O        6.13565761       2.87730745      10.38791776       0.00018848      -0.00031417      -0.00023223      -6.43587570
O       15.29177004      13.91654401       4.06819641       0.00039166       0.00006091       0.00011602      -6.67672617
O        1.01341615      12.30770636       9.29598818      -0.00021056       0.00039666       0.00031585      -6.51738448
O       10.54287028      14.55980113       5.73005190       0.00006906      -0.00003501       0.00034080      -6.54508077
O       12.58082609       3.20366852       4.12719568       0.00018502      -0.00007114      -0.00035928      -6.66357490
O       11.39477204      12.29636852      13.62848142      -0.00029612      -0.00040994      -0.00014757      -6.43721240
O        6.42097866       3.56391938       7.35246746       0.00035265       0.00018372      -0.00020338      -6.54507594
O       15.15698347       9.12518777       7.85640337       0.00003264       0.00007560      -0.00019549      -6.58468694
O        3.47886734       1.88472418      15.97290573       0.00024587       0.00005343       0.00018516      -6.69199925
O        1.46204316       8.71195575       6.97760473      -0.00005471       0.00027692      -0.00021188      -6.03549676
O        7.79294777       5.81752479       7.93909856      -0.00021173       0.00013496       0.00038310      -6.71393435
Hf       3.85938661       8.62429173      14.14405823      -0.00055298      -0.00063942       0.00029572     -17.11798178
Hf      14.28014897       8.63037122      14.75929745       0.00013885      -0.00069050      -0.00018293     -16.78133625
Hf       5.92599808       3.53815550      12.40342446       0.00005863       0.00066503      -0.00010610     -16.73329849
Hf      13.03122834       0.13326714      16.14918773       0.00007273      -0.00002478      -0.00011777     -16.61769683
Hf       1.75309956       5.82774465      14.87963052      -0.00004650       0.00016642      -0.00041277     -15.88730737
Hf       4.50534914      11.50349295       7.37909794       0.00010205      -0.00009793      -0.00003531     -17.05866196
Hf       6.45519625       7.87165603       5.47943230       0.00027893       0.00020972      -0.00018687     -16.58192419
Hf       7.35952625      12.08911823       5.69717810       0.00003778       0.00041845       0.00038552     -16.95763618
Hf      14.32630484      13.69108350       2.18891654       0.00002351      -0.00010372      -0.00043419     -16.90960144
Hf       1.22718184      14.04082889       0.08324111       0.00031362       0.00026433       0.00032372     -17.11233446
Hf      15.37759667       3.60893649      12.29634047       0.00026384       0.00011005       0.00007033     -17.60974671
Hf      11.14423131      15.85085865       2.66013993      -0.00003919       0.00015463      -0.00031165     -17.16928765
Hf       1.39395336       2.25904794       9.85607547      -0.00035398       0.00030395       0.00006983     -17.51478443
Hf       0.93345293       8.79866623       0.63251450      -0.00000254      -0.00030350       0.00014661     -16.87575012
Hf      15.99562320       1.08118778      14.32982304       0.00002518       0.00014451      -0.00035084     -17.79950009
Hf      15.47237892       5.95236656       1.34937130      -0.00030119       0.00027598      -0.00000526     -16.85306524
Hf       9.01837395       9.68696160       3.06214448       0.00015294      -0.00007697      -0.00019949     -16.90135476
Hf       2.54959533      12.71412662      10.72208166      -0.00030889      -0.00013797      -0.00028598     -17.03496536
Hf       6.87650737       0.55691853       0.61008939       0.00047669      -0.00033493       0.00004991     -17.02169983
Hf       4.07298041      12.96989192       4.21756958       0.00048212      -0.00036367       0.00057000     -17.18607507
Hf       7.19421127       1.06611534       9.72261123       0.00016026       0.00007840       0.00041360     -17.49088327
Hf       0.49335797       3.35296933       3.85178187       0.00015461      -0.00003233      -0.00004527     -17.17855713
Hf       1.62451111      11.63396897       2.35110972      -0.00056732       0.00026101      -0.00006077     -17.59758152
Hf       2.06143154      15.84803639      11.85762905       0.00013834       0.00003526       0.00030062     -17.39599871
Hf      11.76508985      16.10327418       6.30826424      -0.00057505      -0.00007086       0.00013777     -16.80582778
Hf       1.99872269       0.81330363       6.56524016       0.00039592       0.00007286       0.00005390     -16.73143454