768
Lattice="21.56533811 0.0 0.0 0.0 21.56533811 0.0 0.0 0.0 21.56533811" Properties=species:S:1:pos:R:3:forces:R:3:energies:R:1 Time=38500000.01782385 energy=-7710.8644527399065 virial="-23.65931705 15.43808538 -33.6878794 15.43808538 -3.02765325 38.77146969 -33.6878794 38.77146969 -66.25187439" stress="-0.00037936 0.0015392 -0.00335874 0.0015392 0.00167765 0.00386558 -0.00335874 0.00386558 -0.00462591" pbc="T T T"
O       11.40874766       7.85810013      14.14287984       0.00017221       0.00008920      -0.00014601      -6.48148860
O       14.34274204      11.59018446       2.16259088      -0.00017941       0.00036335       0.00019999      -6.62336693
O       12.57874964      16.53544677       1.81258762      -0.00003623      -0.00010204       0.00019081      -6.58063716
O        2.31683554       2.21674595      13.63916008      -0.00015536      -0.00008220       0.00001644      -6.30187599
O       15.23201420      17.09324580       1.61761879       0.00003585       0.00034975      -0.00009036      -6.75918487
O       11.77931868      19.71289942      12.03952547       0.00009458       0.00012965       0.00014901      -6.85626482
O       16.49666646      17.44546361      20.54168084       0.00011492      -0.00007049      -0.00031606      -6.35624609
O       19.96976598      12.62956573       4.58315638       0.00001915      -0.00000201      -0.00013326      -6.60754694
O        4.95122156      18.04278476       2.48230292       0.00003770      -0.00022546      -0.00009296      -6.62570397
O        2.31291526      11.11768283       9.73221996       0.00016919      -0.00034153      -0.00020832      -6.66541903
O       18.63361582       2.34091891      14.76336583       0.00017746       0.00008946       0.00004156      -6.28991946
O        3.54440678      19.44735594       8.90752333       0.00002765       0.00007099      -0.00005895      -6.41938343
O       14.30615139       8.78471529      19.03557752      -0.00022931       0.00005958      -0.00016793      -6.48729936
O       18.49954478       4.27828800      16.79235789       0.00026524       0.00011177       0.00003328      -6.46071846
O       12.57545296       1.73251111       4.97694646      -0.00021382       0.00019045      -0.00049592      -6.20620486
O       15.92239445      11.82429652       6.64609063       0.00008894       0.00012534       0.00003215      -6.05756554
O       15.08740159      17.41651852      12.33859666       0.00003174       0.00004129       0.00032878      -6.44365875
O       10.24984826      15.75579832       9.20849542      -0.00007328      -0.00012377      -0.00005919      -6.39473217
O       20.91266578      15.72015531      14.57462858       0.00026761       0.00003252       0.00010784      -6.28986955
O       13.03843486      13.92433257       1.39648036      -0.00002951      -0.00001850       0.00000362      -6.32323097
O       18.20466568       9.19300966      12.63634308       0.00030396      -0.00032593       0.00013297      -6.53442570
O       20.88108782      21.37093763      19.80229403      -0.00000706      -0.00011999       0.00000487      -6.38301302
O       21.09177992       3.08689337      14.43120371      -0.00008025      -0.00011914       0.00001917      -6.55985225
O        2.70248794      20.99324379      19.74940801       0.00005068       0.00000836       0.00014875      -6.72240556
O       16.01625079       4.09214196       0.98829484       0.00042848       0.00015042       0.00001460      -6.42738165
O       19.25729712      17.93325045       9.50914694      -0.00024918       0.00023517      -0.00016158      -6.56455826
O        4.50321813       5.33992888      10.72110120       0.00017002       0.00000761       0.00039414      -6.00490114
O        7.83051600      11.77725534      15.50739866       0.00010204       0.00004462      -0.00020425      -6.52822704
O        5.45587498      11.21664445      16.33994855       0.00016551       0.00017141       0.00033450      -6.27301288
O        2.73415314      10.69902442      19.41662460       0.00019416       0.00002432       0.00023896      -6.27383286
O       15.05386156       7.93659590      10.09588055       0.00048937       0.00048410      -0.00024498      -6.59791497
O       14.07185409       0.48062202       3.24659552       0.00004257      -0.00045637      -0.00030047      -6.77003050
O       16.95841662       7.40581873      14.31633506       0.00002752      -0.00012293       0.00012860      -6.43008748
O       20.28806166       5.65623830       2.95487726      -0.00016854       0.00024532      -0.00000563      -6.53738418
O       19.16517579      18.12669002       0.22010799       0.00004255       0.00006902       0.00022022      -6.52532347
O        6.38459375      16.85231996      18.76271418      -0.00015745       0.00002532      -0.00043837      -6.73271795
O       17.25386078       2.69406462       9.98711470       0.00018950      -0.00006731       0.00020592      -6.70779799
O        0.79739660       9.93691458      12.04724997       0.00022354       0.00024697       0.00002809      -6.67426930
O        1.26922177       1.61282253       4.90792249      -0.00004730      -0.00038743       0.00025626      -6.57477934
O       13.52708017      16.85338958       5.55230479      -0.00005697       0.00035671      -0.00016091      -6.70378875
O       18.65903020      14.10868590      14.63243226      -0.00028726       0.00010201       0.00003230      -6.30882959
O       11.27309500      12.67596357      11.26670510       0.00012356       0.00007262       0.00021084      -6.52629111
O        6.97642898       9.97102955      13.20318664       0.00014421      -0.00009838      -0.00026352      -6.86558803
O       16.40866368      13.43424202       8.69278401      -0.00004244       0.00000164      -0.00017607      -6.47321938
O        6.51235716      15.15619817      16.41043393      -0.00014299       0.00010902      -0.00009532      -6.38841783
O       19.15863673      20.79205394       0.98675258       0.00005652      -0.00041109       0.00016096      -6.69276042
O       18.72617637      19.67734412      16.59492282      -0.00022641      -0.00000788       0.00066375      -6.34361218
O        6.83813690      14.11499119      14.01498505      -0.00002489      -0.00012264      -0.00025697      -6.57650754
O       10.32450229       8.16214114       0.65617762      -0.00018281      -0.00026674      -0.00024977      -6.61727607
O       14.40592120      15.20025836       3.52266884      -0.00042845       0.00028855       0.00014018      -6.46178456
O       17.18543373       0.17944170       8.24523413      -0.00030534      -0.00005650      -0.00012857      -6.45205484
O       19.24229238       0.05194497       6.26251297      -0.00030069       0.00042063       0.00000492      -6.22908563
O       16.04040545       1.32640153      21.00598535      -0.00016970      -0.00009866       0.00003659      -6.73234353
O        2.32437643       7.66587937      14.73977546       0.00019158       0.00019562       0.00000947      -6.67675683
O       10.31745709      21.33129461      15.05103948       0.00013514      -0.00030129       0.00025011      -6.50634936
O        6.45886071      17.69110376      16.29094578       0.00020297      -0.00022462      -0.00019539      -6.58862262
O        9.40593701       7.10007713      11.96828728       0.00009477       0.00001571      -0.00041531      -6.62478666
O       17.14214114       6.38885898       1.94289812      -0.00011477       0.00006588      -0.00017168      -6.47346191
O       11.08333450      12.72716107       2.31034193       0.00014073       0.00021231      -0.00030181      -6.29724928
O        2.37532124       0.38908339       1.03766493       0.00021624      -0.00011488      -0.00020130      -6.29929589
O        3.11801696      13.86069276       8.45131508      -0.00034614       0.00001685      -0.00017102      -6.46938589
O       16.60090196      13.39181415       4.58576136      -0.00019302      -0.00016144      -0.00002278      -6.67996852
O       17.95584177      12.16373103      16.14121096       0.00017969       0.00016398      -0.00024340      -6.58820979
O       15.53780395      20.51492344      18.23479571       0.00047244      -0.00021561       0.00005053      -6.61760068
O        4.63781279       3.65539060      18.55234511      -0.00022251      -0.00005765       0.00022678      -6.64228780
O        9.72089397      19.88130987       2.15415861      -0.00071386       0.00003070       0.00019452      -6.58802829
O        3.97923743       1.16619529      17.34849057      -0.00014103       0.00045953      -0.00019056      -6.77067621
O       20.24194300      21.60970138      10.45729982       0.00018966      -0.00031623       0.00016659      -6.45834550
O        5.12982257      10.12918380       0.91760195      -0.00018240      -0.00017299       0.00002387      -6.30350380
O       17.68174003      18.76446454       2.61965309       0.00041062       0.00026124      -0.00028163      -6.65134420
O       15.63308780      19.24863540       9.91451626       0.00002396       0.00011219       0.00058751      -6.60357815
O       19.11309212      16.19067209      19.74624213       0.00020074      -0.00014945      -0.00016418      -6.63313701
O       20.92789234      15.99829669       1.85891683      -0.00010846       0.00048313      -0.00010053      -6.54694959
O       18.99582508      15.54884850       8.95746118       0.00035171      -0.00012561       0.00004389      -6.79220499
O        7.59660230       7.10873832       4.39189231      -0.00019420       0.00013620      -0.00036390      -6.53443207
O       19.42212010      13.98488958       0.18136926      -0.00009346       0.00007614       0.00019580      -6.36262122
O        8.16061174       1.67270635      13.23059185      -0.00008908      -0.00032261       0.00002119      -6.76957855
O       14.36980567       6.94201070      14.38650488      -0.00005976      -0.00027747      -0.00012119      -6.50774218
O        6.24206324      13.50199751      11.49327908       0.00011570      -0.00007638      -0.00020341      -7.01849143
O        3.12704612       5.38341339      19.89577205       0.00008475       0.00006952      -0.00022214      -6.48214770
O       14.19603263       5.16865072      12.64735881      -0.00011609       0.00018155       0.00020497      -6.39465639
O        8.67839316      13.33954363      20.36385544       0.00036523      -0.00007072      -0.00024623      -6.86384062
O        3.24625712      13.06221079       5.62327228       0.00020584       0.00005656      -0.00017203      -6.01065375
O       20.46547346       2.48137518       3.39454084      -0.00020713      -0.00000835       0.00013279      -6.41172952
O       17.18773595      16.70245412      11.02142642      -0.00034801       0.00000254      -0.00008613      -6.41121945
O       16.52795001      11.73500871      18.66590788      -0.00003408       0.00045284       0.00021440      -6.64651433
O       13.57675312       1.94373803      11.71845520       0.00011704      -0.00025516      -0.00030957      -6.99593234
O       18.10835592       8.13190493       9.90016243      -0.00028232       0.00002341       0.00021497      -6.65521635
O       14.56092707       1.75734739      18.60143352      -0.00009975       0.00032870       0.00019538      -6.33654664
O        5.42931233       4.15656974       2.03932602       0.00018797       0.00033787       0.00020132      -6.48498370
O       12.95444271      10.45341782      12.21861088       0.00081697       0.00011441       0.00006780      -6.48218620
O       21.39670896      20.57803703       5.37849513       0.00018367      -0.00032094      -0.00001576      -5.98779315
O       12.23557849       5.83502959       5.56866098       0.00010398      -0.00041103      -0.00035704      -6.50625325
O       21.48529359       3.00282054       9.41301667      -0.00014928      -0.00010243       0.00016449      -6.12691897
O        1.64539147      15.53650129       3.72996822      -0.00025188       0.00009786      -0.00000029      -6.31431141
O       13.25498785      20.87441510       9.99331214      -0.00026990      -0.00037976       0.00002939      -6.13851852
O       13.19254392      17.52051924      10.62796301      -0.00019959       0.00017800      -0.00048543      -6.57547678
O       14.74359816      10.16311902       4.83583438      -0.00006705      -0.00010839      -0.00024854      -6.61057188
O        8.70649010      18.61756227       7.41000523      -0.00000802       0.00007299       0.00011724      -6.59357299
O       13.86703875      12.49789536       8.03882724       0.00035426      -0.00041826       0.00008126      -6.11744596
O        8.15212150       4.68655920       9.68524981       0.00009907       0.00013775      -0.00024801      -6.19545135
O        7.59371033      10.14699501       4.29054097       0.00021399       0.00009822      -0.00027764      -6.32569173
O        7.48577944       1.71437418      10.61637885       0.00036719      -0.00048810       0.00035216      -6.54705201
O       20.46827831       5.12729381       8.51052170       0.00015722      -0.00004880      -0.00017332      -6.43562773
O       12.39006959      18.25796139       3.78340591      -0.00034306      -0.00013393       0.00039701      -6.49024244
O       15.10776622       5.98685340       4.58418428      -0.00009208       0.00020140       0.00007012      -6.71148483
O        9.29857671      15.00599721      17.80173768       0.00050166       0.00010051      -0.00028846      -6.77229137
O       15.11672945       3.00402743       3.43120475      -0.00045232      -0.00015776      -0.00003916      -6.55336682
O        1.01884211      17.84794690       5.06844181       0.00059430       0.00029476      -0.00033340      -6.55211488
O        3.17482255      10.12646272      16.81223739      -0.00017651       0.00001976       0.00001391      -6.32860944
O       10.67950564      14.40150808       0.13955678       0.00012632       0.00009212      -0.00014288      -6.32832908
O        6.23209326      13.14232641      18.07857922       0.00013113       0.00030902       0.00019279      -6.35313502
O       15.89101001      15.78292356      17.61735983       0.00016476       0.00018913      -0.00008420      -6.85828228
O       10.16053535       0.38194026       3.84238783      -0.00008612      -0.00009424       0.00007108      -6.52382098
O        2.95896420      19.54106265       0.38186101       0.00030166      -0.00003670       0.00030442      -6.52307095
O       16.36644803       2.71248105      17.09356195       0.00030684       0.00013998       0.00000369      -6.55684760
O        2.47694003       4.47732909       1.23328825       0.00013899       0.00026487       0.00013135      -6.79927148
O        6.88314730       2.32507297      18.68928164       0.00027845      -0.00012071      -0.00004992      -6.48299098
O       17.07132119      12.23975472      21.19339699      -0.00003588       0.00013143      -0.00028834      -6.69988163
O        1.13960306      17.46032404       8.08851745      -0.00008643      -0.00007251      -0.00034001      -6.59205231
O        2.77931758       2.40567108       2.67129401       0.00005906      -0.00003098      -0.00012864      -6.72294201
O        8.35235791       4.58440640      18.72728748       0.00031330       0.00023085       0.00018809      -6.47645439
O        7.58566447       0.97332456       3.77790870      -0.00039161      -0.00005606      -0.00021668      -6.55543931
O       14.46441650      20.11412940      12.44681230      -0.00013488      -0.00003001      -0.00033181      -6.67088768
O       18.19772913      20.30145663      10.62187421      -0.00011998      -0.00039389       0.00010874      -6.56426449
O        6.89325845       8.17503956      20.41460408      -0.00002893       0.00033093       0.00005250      -6.59463223
O        8.66297135       0.34041329      20.09696510      -0.00014316       0.00050976       0.00002640      -6.55344407
O       13.39063409       3.30171229       6.69888088      -0.00038836       0.00006418      -0.00005461      -6.45656849
O        8.90749345       8.49397714       9.75333374       0.00007668       0.00059876       0.00025591      -6.52885445
O       16.18098939       0.44701775      10.95184319       0.00007643       0.00027835       0.00005627      -6.37828603
O       18.73339785       9.38778991      15.99157356      -0.00013040      -0.00005162       0.00006576      -6.66767739
O        2.63044945      20.69709014      16.53507835       0.00008815       0.00010846       0.00023911      -6.50850157
O       18.49538808      11.68284918       9.81767046       0.00024096       0.00003600      -0.00027634      -6.58721478
O       19.79845295       8.17894955       7.85477775      -0.00035151      -0.00037423      -0.00018287      -6.67029323
O       11.94099020       4.63859814       0.69007183       0.00034194      -0.00006159      -0.00025212      -6.47232501
O        9.64171003       5.59443487       0.65085309       0.00013914       0.00027916      -0.00001394      -6.23265072
O       19.84909749      12.18476164      12.77341229       0.00016055      -0.00000968      -0.00000288      -6.56156503
O        5.58797286       9.03097277       3.31257822       0.00013355      -0.00039278      -0.00014966      -6.00718020
O       20.86118580      13.10596081       8.73036857      -0.00023738       0.00000981       0.00010109      -6.68632780
O       17.95567552      20.55214330      20.23206893       0.00014792       0.00004945       0.00002786      -6.86704878
O       21.10293317      14.16338602      16.81424403      -0.00028542      -0.00019870       0.00007641      -6.41864169
O        4.33436852       6.25518710       3.83582028      -0.00017817       0.00014209       0.00007213      -6.56444506
O        9.92032892      18.76984886       4.60181021      -0.00043184      -0.00024171       0.00013647      -6.31329175
O        5.45380396      20.27718086       0.88445629       0.00002749      -0.00019875      -0.00053212      -6.27132824
O       19.61682952      19.17948720      18.86198325       0.00000922      -0.00026642      -0.00013177      -6.35453095
O        1.32723981       4.45546637      11.96771138      -0.00017983       0.00014772      -0.00001289      -6.52619427
O        8.07108125      11.62553246       8.09912030       0.00035641      -0.00038856      -0.00004215      -6.45951879
O       10.66239223      18.10414571       9.64260480      -0.00012785       0.00008852      -0.00023380      -6.40706895
O       12.62817085       9.54185276       0.51382643      -0.00013638       0.00011570      -0.00001899      -6.21792690
O        2.65579854      15.71112120       1.15420936       0.00016773       0.00043532      -0.00026381      -6.62126594
O        7.94716939       0.13502336       8.65031027      -0.00015201       0.00009213      -0.00054106      -6.71901151
O        9.07895985      14.20334354       2.03979652       0.00005953      -0.00017905       0.00028898      -6.35864627
O       10.23843205      19.96197817      19.20707571      -0.00055576      -0.00042505       0.00019813      -6.13112751
O       10.17158908       2.41259065       5.62474374       0.00022681      -0.00027657       0.00019755      -6.45482770
O       10.37078780       6.36969532       9.24259606      -0.00003406      -0.00000631      -0.00000976      -6.51511145
O        5.20942187      11.85593095       9.14812271      -0.00058202      -0.00012678      -0.00010199      -6.66185753
O        5.90554090       8.47737622      16.60856880       0.00019774      -0.00020742       0.00026451      -6.23167162
O       11.15495821      15.87418668      15.42364760       0.00019779      -0.00024549      -0.00059708      -6.10649888
O        6.11846462       0.27328811       6.65585962      -0.00020938       0.00005233       0.00023566      -6.47470998
O        8.24559469      20.41516936      16.34814122       0.00000783       0.00003482       0.00004349      -6.62148218
O        3.63032815       8.25934490       8.50138167       0.00007580      -0.00010016       0.00001628      -6.89969416
O        1.96199232      15.56184493       6.61031943       0.00000891      -0.00018559       0.00043792      -6.71897839
O       20.99583540      19.94469716       8.32606148      -0.00011308      -0.00002034       0.00009196      -6.59725922
O       15.50343613       4.87757765      15.45879528      -0.00025161       0.00008527       0.00007094      -6.37169595
O       18.74663698      14.00423302       2.80941334      -0.00005395      -0.00004341       0.00014797      -6.46251118
O        5.11907197       7.15022445       1.06079605      -0.00002167       0.00019120      -0.00047235      -6.32070675
O        8.56153792       9.70475352      16.76727398       0.00023199       0.00011981      -0.00020039      -6.34626770
O       20.21060638      18.20631969      11.81966598       0.00006945       0.00004675       0.00025694      -6.51066041
O        3.70133744      10.25426006       4.58611859      -0.00017166       0.00021212       0.00006873      -6.34258462
O        7.04986696       5.54231505      21.04561071       0.00030568      -0.00009041      -0.00039960      -6.41726569
O        6.59873042      18.32255801      13.95476099       0.00003112      -0.00038984       0.00009759      -6.39173613
O       11.80364502      11.76989077      14.39444233       0.00015941       0.00029241      -0.00004482      -6.38074848
O        9.74449865      13.60097009       7.66342827      -0.00039125      -0.00053233      -0.00006620      -6.35622374
O       12.49026562      18.39805878       7.76948603       0.00016349      -0.00003563      -0.00034534      -6.53422139
O       14.50170207       2.26108148       8.85641713       0.00028980      -0.00002504       0.00020873      -6.64637666
O       18.06300971       9.68864308       0.19719555      -0.00036187      -0.00029409      -0.00008228      -6.71384477
O        9.65187123      10.03014672      14.14373432      -0.00023152       0.00018155      -0.00033530      -6.40762909
O        0.06884866       9.47743083       2.43449405      -0.00031416       0.00028100       0.00003826      -6.67475270
O        3.21981349      14.22973318      20.20061853       0.00001189       0.00019375       0.00007519      -6.62437421
O        8.53532005      16.35878917      20.07400439       0.00004790       0.00004625      -0.00001697      -6.66910410
O       16.20730187       6.47123456      11.79378459       0.00022012      -0.00005676      -0.00013504      -6.61947146
O       11.36154880      21.33352843      17.37241797      -0.00036652       0.00011909       0.00002852      -6.15385630
O       10.10151654      13.42447671      15.17659970       0.00014649      -0.00003720      -0.00005341      -6.28828888
O        9.43812465       6.92346961      20.02572510      -0.00006747       0.00005015      -0.00028848      -6.18728226
O        2.20016411      10.45206378      14.01005188       0.00027314       0.00033660       0.00000522      -6.41981996
O        3.15815963       2.11602186      20.87592173      -0.00020309       0.00015397       0.00005809      -6.46461849
O        1.11990397      12.22119802       7.19850341      -0.00041951       0.00017149       0.00006660      -6.51861218
O       19.84566895      18.25779591      14.77572733       0.00013660      -0.00018370       0.00008469      -6.17991695
O       10.54665093      20.77486643       9.32636339      -0.00016309       0.00022460       0.00015179      -6.45183099
O        5.00898528       0.87139637       3.66965554       0.00009348       0.00007601      -0.00006063      -6.74903852
O       11.27544938       5.10578408      19.37417035      -0.00013227      -0.00027452      -0.00004403      -6.86010186
O       13.75313094      15.95090186      20.44484842      -0.00010336       0.00000717      -0.00002734      -6.68491599
O        1.18324593      14.92402973       9.74459619       0.00009337       0.00026662      -0.00032848      -6.82472293
O       18.08735173       4.76579154      13.43614029       0.00003265      -0.00007573       0.00029331      -6.78682872
O       20.30903219      16.92679272      17.13782464       0.00005647      -0.00020518       0.00014497      -6.44594769
O        0.23408683      13.51125294       2.92551234      -0.00023619       0.00002859       0.00026292      -6.30805105
O        4.46559713       8.99940816      19.30062744      -0.00021601       0.00003171       0.00025864      -6.27926571
O        9.17924221       9.71063591      19.74529108       0.00005741      -0.00037476      -0.00030507      -6.45411723
O        6.04769358       3.51421043      12.53477718       0.00027972       0.00000580       0.00008695      -6.52920395
O        9.94725377       4.57006693       4.25047153      -0.00002305      -0.00027086      -0.00055220      -6.26009575
O        9.03694556      18.09863016      17.88755152      -0.00019935       0.00030536       0.00022228      -6.64829663
O        0.47216207      13.79993739      13.42503991      -0.00005292       0.00054690      -0.00023984      -6.58768093
O        4.61869968      13.31119201      15.04797423       0.00012079       0.00004453       0.00044547      -6.54366442
O        6.90159502       3.05417622      21.09425464      -0.00049116       0.00030813       0.00003894      -6.71187660
O       18.99472328      21.34086208      14.39835803       0.00023858       0.00010584      -0.00017781      -6.49989648
O       18.08483180      19.21185718       7.40733764      -0.00024812      -0.00020914       0.00014577      -6.28352035
O        5.22290348      17.58741527      21.45291460      -0.00038618       0.00008710       0.00021030      -6.81229494
O       13.83281898      12.89639013       4.69237622       0.00013812       0.00020331       0.00002139      -6.77788925
O        3.92524354       4.67601558      13.32790321       0.00042822      -0.00000552       0.00003463      -6.68454993
O        7.36243162      19.43339070       5.28504254      -0.00015721       0.00018946       0.00025851      -6.51832100
O        2.37743439      19.79255791       6.70173797      -0.00005850      -0.00009310      -0.00011982      -6.51739736
O       14.40823104      20.95336077       7.61701058      -0.00006112      -0.00017036       0.00030993      -6.59438294
O       11.53688253      14.02282891      18.90283276       0.00020861      -0.00007372      -0.00010188      -6.38662559
O        8.72567578       3.45972414       2.08091070       0.00013025      -0.00000075      -0.00020680      -6.64279104
O       17.35533742      16.91092744      15.15531924      -0.00019590      -0.00005213      -0.00014733      -6.75673562
O        3.75279722      12.17732681      13.02171647      -0.00020784      -0.00044641      -0.00013925      -6.63249451
O       15.96956403      17.13387270       4.61603334       0.00007065      -0.00001413      -0.00017760      -6.42396748
O        2.14323908      18.26351333       2.52697723      -0.00022525      -0.00026467       0.00008681      -6.54599117
O       20.06561789       1.97789159      16.85551525       0.00023747       0.00007452       0.00003487      -6.36735746
O       11.97677500      18.70255293      17.36614467       0.00024316       0.00007473       0.00011235      -6.22752366
O        6.72059806       2.74354296       7.01001556      -0.00012146       0.00006918      -0.00000654      -6.39358174
O       15.23419929       5.85264386      18.13092904       0.00048613       0.00004114       0.00029522      -6.70800238
O       11.99148554      14.52664330       6.75121361       0.00045619      -0.00010848       0.00034346      -6.00980764
O        2.44073391       2.41470774       8.86796784       0.00001305      -0.00000520      -0.00020537      -6.12475295
O       18.91304612       4.15273846      21.54499386      -0.00048130      -0.00038726      -0.00023689      -6.66806302
O        6.68412568      10.67979269      18.96076150       0.00020639       0.00028883      -0.00002947      -6.71027761
O       13.37058305       8.17104293       3.12677332      -0.00011593      -0.00038932      -0.00007221      -6.94920488
O       19.35143011       6.42763300      15.34108212       0.00003158       0.00019392      -0.00011195      -6.69882624
O       17.32800122       8.01358198       5.40155663      -0.00049901      -0.00015360       0.00009040      -6.81352274
O       12.00440763       8.97955444       9.52189100      -0.00015087       0.00035345       0.00028698      -6.58161193
O       21.23374519      19.01350231       2.61991913       0.00016739       0.00018449      -0.00007750      -6.73861816
O       19.29399666      10.69467059       2.88195564       0.00004225       0.00014686       0.00011779      -6.60468383
O       14.82677197      12.71501929      10.79296535       0.00027011       0.00022731       0.00008478      -6.20298300
O       12.46581460      14.65047111       9.51463788      -0.00009107      -0.00014686      -0.00029057      -6.42560292
O       10.80474757      11.47881210       0.02040352       0.00001111      -0.00004660       0.00001769      -6.68504055
O       20.13280958      17.59179624       6.83873866      -0.00024070      -0.00021251       0.00024892      -6.71831866
O        7.43174092      17.65892571       3.35760446       0.00001806       0.00004893       0.00027352      -6.14770146
O       12.66999753      15.90583330      17.37442314      -0.00036707       0.00017142       0.00032141      -6.47156808
O        3.34936548      14.77797139      11.95375018      -0.00000910       0.00027763       0.00017301      -6.76619889
O       16.44440623      17.40380506       8.40077962       0.00029772       0.00009765       0.00025256      -6.25999898
O       12.12371203       3.87006363      10.00781914      -0.00009016       0.00007718      -0.00008967      -6.47121434
O       17.29900681       9.30673970      19.00613123      -0.00014526       0.00033719       0.00011158      -6.38405943