768
Lattice="22.08221498 0.0 0.0 0.0 22.08221498 0.0 0.0 0.0 22.08221498" Properties=species:S:1:pos:R:3:forces:R:3:energies:R:1 Time=24499999.99667374 energy=-7664.0399676762645 virial="-47.58650388 -24.25443688 17.39146059 -24.25443688 -106.3340974 -3.88969706 17.39146059 -3.88969706 -117.19504047" stress="0.00602869 -0.0022523 0.00161499 -0.0022523 0.00057332 -0.0003612 0.00161499 -0.0003612 -0.00043524" pbc="T T T"
O       17.00786243       6.80676082       3.27185341       0.00010899      -0.00033263      -0.00026072      -6.52043913
O       15.69798029      14.37383592      20.10178090      -0.00030160      -0.00015492       0.00032197      -6.47540897
O       15.94052071      10.20173072      19.75476676      -0.00013182       0.00019841      -0.00004949      -6.35893911
O        3.14638595       2.96851305      17.34359469      -0.00028904      -0.00037578      -0.00011858      -6.60258830
O        1.35022750       0.90831654      15.94915093      -0.00025913       0.00021296      -0.00005105      -6.68858991
O       16.76938028      14.42328486      12.07535222       0.00021482       0.00035143       0.00008752      -6.73538304
O        9.30088611       3.39627329       5.70942430       0.00040430      -0.00014587      -0.00015337      -6.48925867
O        7.38959326      13.91980542       4.18010814      -0.00029649       0.00023834       0.00013020      -6.62089214
O        3.47531384      10.28308584      15.08578409      -0.00013832       0.00032688       0.00021258      -6.39309188
O       13.97661986      14.60505025      12.36924104      -0.00029975       0.00004291      -0.00016803      -6.68868638
O       18.41820351      -0.14854329       9.21924448       0.00043627       0.00048076      -0.00007153      -6.57777007
O       19.92237005      12.51760181       9.60125763       0.00000788       0.00000949      -0.00014876      -6.71099903
O       15.17022952       0.74481087      18.92771307       0.00020531      -0.00028655       0.00030370      -6.79242120
O       20.12421979      13.34473545       6.58363103       0.00001907       0.00040117      -0.00007547      -6.49833328
O        6.71313173      15.97411108      11.86460438       0.00004867      -0.00006836      -0.00008023      -6.81736844
O       10.04241111       0.91550539       8.56257711      -0.00009415       0.00015149       0.00013153      -6.82026521
O        5.16569477      12.55154549      22.30107256       0.00003944      -0.00010624       0.00011581      -6.71771829
O        8.97908169       0.88849509      19.63330599      -0.00017190      -0.00015467      -0.00008227      -6.60096668
O        4.77668497       2.92384763       1.70692573      -0.00016609      -0.00008701      -0.00012341      -6.66210195
O        5.58878659      11.00920137       9.29183628      -0.00012819       0.00010988       0.00017422      -6.65228878
O       19.87280144       1.54285428       2.93206873       0.00014013      -0.00002409      -0.00022212      -6.56385286
O       19.36335775      19.34246713      13.86165896      -0.00026613      -0.00005247      -0.00015162      -6.58088638
O       18.43499870      13.70551510      20.36485632       0.00016197       0.00049851       0.00019036      -6.35265091
O       17.84058918      11.38434795      13.33444020      -0.00026750       0.00018707       0.00006586      -6.45851827
O       17.65602423      15.17305623      18.07664224      -0.00036808      -0.00012625      -0.00005519      -6.58899032
O        1.26257357      14.65588322      17.22478567       0.00010347       0.00003589      -0.00015464      -6.70411456
O        5.60072060      13.10179983      11.31207929       0.00014286      -0.00004430      -0.00016892      -6.80058009
O       20.74624661       7.36435246       6.83066370      -0.00002738       0.00014812      -0.00013339      -6.21419218
O        2.92109128      17.42883852      16.74554031       0.00026733       0.00007613      -0.00021871      -6.52309445
O       13.96682722      12.89321064       4.56310952       0.00025924       0.00036155      -0.00010831      -6.66724542
O       21.25994266       7.35018354      10.72852717      -0.00001530      -0.00001920      -0.00004017      -6.65307590
O        2.96330862      10.44743933       9.46810906      -0.00033066      -0.00017580      -0.00039595      -6.17970665
O       15.36146099      15.29124177       4.26988427       0.00009427      -0.00017400      -0.00051663      -6.60482194
O        4.84923343      10.60294211      12.54689804      -0.00013845       0.00005083      -0.00031089      -7.05864361
O       17.72286307       5.24425758      21.08282105      -0.00034117      -0.00008798       0.00010476      -7.02732860
O        2.34712840      15.31380272       8.78629690      -0.00023208      -0.00019235       0.00000759      -6.60969289
O       14.96595212      10.61932094      16.44167227       0.00027014       0.00031110      -0.00012817      -6.35219717
O       12.13038497      16.85520241       9.99522962       0.00043399      -0.00017622       0.00019701      -6.59919937
O       20.33698665       6.00150751       8.84829647      -0.00039979       0.00019641      -0.00002978      -6.26436986
O        9.70730996       4.25425935      21.43681424       0.00022074       0.00018708      -0.00013699      -6.47559900
O       10.52117346       3.34387694      15.00265182       0.00004488       0.00001078      -0.00010505      -6.67594369
O        5.04910005       9.63350065       3.77253258      -0.00028281       0.00000897      -0.00003771      -6.53100124
O        2.25497457       9.06847924      16.91691995       0.00000367      -0.00005986       0.00054813      -6.31852033
O       11.04743832       4.97718583      16.89000531      -0.00011682      -0.00038480       0.00007097      -6.69897550
O       10.73331001       7.98579554      17.51816879       0.00029969      -0.00000432      -0.00023987      -6.70519668
O       17.06928235      18.84341759      12.53074752      -0.00000242      -0.00009142      -0.00034741      -6.09221978
O       13.62114135      10.16367389      10.66422092       0.00016112      -0.00032189       0.00008750      -6.53748841
O        9.72168091      21.86136524       5.70724480       0.00036055      -0.00001175      -0.00016667      -6.31458781
O       14.88599427       1.35964103      22.20492064      -0.00012539      -0.00032615       0.00015147      -6.77283770
O       16.16053930       9.90166851      12.38808417       0.00018328      -0.00004167       0.00005723      -6.56813705
O        1.70798931      17.90242345      11.63015874       0.00005526       0.00031530       0.00030631      -6.81877937
O       12.62427145      13.94021045       7.10790002       0.00005190      -0.00007775      -0.00025082      -6.53716744
O        8.10930458      11.45260790       4.87979605      -0.00004479       0.00011753       0.00003282      -6.62544499
O        1.41025138      12.06362156      17.19572755       0.00013140       0.00003103       0.00019201      -6.67058797
O       20.04023868      11.67915921      14.87055969      -0.00020299       0.00013787       0.00030767      -6.83341784
O        4.10010744       7.83742666      18.36322502      -0.00019283      -0.00022642      -0.00039693      -6.37771807
O        2.98331382      17.22045495      20.26655902      -0.00016421       0.00028350       0.00031615      -6.37126819
O       21.56631765       3.17146450       1.01020057      -0.00012376      -0.00030923      -0.00002793      -6.57079442
O        0.86709792      11.51330141      19.75540977      -0.00001283      -0.00012651       0.00030065      -6.54713129
O       19.26348650      20.44529639      11.42121430      -0.00013725      -0.00000886      -0.00000225      -5.95116811
O       18.62555752      14.40474635      15.75574934       0.00028220       0.00024141       0.00022229      -6.90568595
O       21.31884534      10.68385474       5.87188697       0.00000381      -0.00019911       0.00017326      -6.76879758
O       13.17274846      18.19100575      17.41206353      -0.00006066       0.00018571       0.00016156      -6.42087232
O       21.02189787      19.00417973      10.34228995       0.00012100      -0.00024414       0.00010926      -6.76664865
O        6.39493179      17.27339673      17.26444231      -0.00028342      -0.00003510       0.00000017      -6.43480761
O        3.02617939       8.03824865       2.03195344       0.00019448       0.00009277      -0.00016057      -6.85551809
O        4.40170630      20.74006278      20.94726146      -0.00013237       0.00003173      -0.00024309      -6.51984121
O       11.28738279      14.31085096      12.97324651      -0.00000615      -0.00003131      -0.00030995      -6.82397439
O       11.95566470       4.64682123      10.09220091      -0.00003254       0.00054369      -0.00001527      -6.56922224
O       12.96949762       8.42999107       8.29731748       0.00019470      -0.00016380       0.00035783      -6.72705092
O        5.47221933       4.74813910      18.37358371      -0.00008305       0.00003003       0.00025516      -7.06300124
O        3.82474827       7.64527116      13.35886924       0.00015140      -0.00003480       0.00020920      -6.95228510
O       11.31243981      21.74312494       2.92780456       0.00012427      -0.00008287       0.00012635      -6.43562628
O        8.31827718      12.18878164       1.73502497      -0.00017786       0.00005879       0.00013485      -6.68926594
O        6.29137775       8.63560340       1.46093763      -0.00004367       0.00024993       0.00010695      -6.49329408
O       15.42141956       0.34022867      11.89350817      -0.00014913      -0.00032362      -0.00023475      -6.58192165
O       19.73691775      21.75656832       0.17560986       0.00016552       0.00013140       0.00014526      -6.64966550
O        4.01986288      17.06710539      14.38051809      -0.00008090       0.00033715       0.00000907      -6.38100492
O        6.11470531      21.23069787      16.16012758      -0.00028502       0.00016748       0.00009490      -6.51235187
O       18.20720686      10.70246244       1.14496152       0.00016925       0.00000706       0.00014743      -6.68916899
O        5.46975002      14.65944375      20.24607585       0.00008012      -0.00032730      -0.00041681      -6.60987153
O       19.47145899      13.84817260      12.72395341      -0.00032453      -0.00010789       0.00043835      -7.03131496
O       11.63498077      15.26039466      -0.01357646      -0.00001279       0.00002489      -0.00027106      -6.48551935
O       17.76141652      22.52855671      17.07141757       0.00006113       0.00000141       0.00015830      -7.03202370
O        4.51689021       2.76041030      20.44008358      -0.00001343       0.00029631      -0.00031072      -6.96182905
O        8.91664930       5.93276394      11.00841324      -0.00000239      -0.00012500       0.00020963      -6.51016853
O       13.60701829      11.06110978      20.72845134      -0.00005692      -0.00047506       0.00049535      -6.28541254
O        6.90166733       6.79997583      17.31335082       0.00012482       0.00028815      -0.00010825      -6.80659873
O        8.77177044      15.69418519      16.46597060       0.00009265      -0.00004223      -0.00004619      -6.47791096
O       13.66948388      15.73652410      18.70115873      -0.00000388       0.00002032      -0.00010800      -6.71182319
O        9.90711119       0.99012168      13.44089016      -0.00022503      -0.00011746      -0.00016748      -6.78656476
O       20.13054804      15.35258395       2.99461277       0.00003550      -0.00004535      -0.00029197      -6.57661202
O        9.13802724      17.25723845       8.87162468       0.00003947       0.00020535       0.00000819      -6.61438210
O        1.01238208       9.33171851      13.81638882      -0.00007420      -0.00002646       0.00005020      -6.81502640
O       14.75397607      16.13526698       7.14509272      -0.00018199       0.00036814      -0.00010008      -6.62360540
O        0.04267754      13.37404342       3.73968450       0.00025209      -0.00011583      -0.00014194      -6.43226681
O       21.05717523       5.19414059       3.28526390       0.00012627       0.00005567       0.00004554      -6.48935764
O       22.06423163       8.21686901      17.87946016      -0.00003938      -0.00027090       0.00016226      -6.32303753
O        4.71764598      15.92187208       9.21211693       0.00057060       0.00017476      -0.00021460      -6.78077291
O        2.67170313      20.32751400       1.93932076       0.00036463      -0.00005944      -0.00008982      -6.78350616
O       19.42893376      17.26543802      18.59352073      -0.00030859       0.00029834      -0.00029718      -6.36572218
O       11.59199520      11.83631250      13.29254180      -0.00016403       0.00041653      -0.00002744      -6.42368495
O       12.05185644      10.38467301      18.65714212      -0.00015009       0.00003121      -0.00003309      -6.41807798
O        4.60294961      18.99208174      18.80124921       0.00050818       0.00019705       0.00007905      -6.36300110
O       15.82502430      11.10703562       6.02338559      -0.00028369       0.00034940      -0.00012800      -6.41622368
O       19.31777824      19.69726769      17.60493427      -0.00041659       0.00001703       0.00004313      -6.38555340
O       18.26445172      13.81723195       1.34152996       0.00008660       0.00006145      -0.00017637      -6.74533705
O       15.80228060       8.17309881      10.48430558       0.00014833      -0.00027227      -0.00014820      -6.62749230
O       11.05743556      12.83638636       5.34701613      -0.00029798      -0.00013638      -0.00003365      -6.26598752
O       11.17819954       4.80119392       3.74982739      -0.00023573      -0.00003912       0.00003419      -6.68895430
O        5.48460687       5.26666555       9.78245030      -0.00020540       0.00017681      -0.00007336      -6.53309374
O        1.13792367       6.24888309       2.06511555       0.00023933      -0.00004204       0.00018826      -6.35148331
O       14.20240517      17.36400056       2.53855150      -0.00009869       0.00007501       0.00018559      -6.69282769
O        9.88634307      19.19743634       4.68234840       0.00018205       0.00004476       0.00040628      -6.61401514
O       10.26078408       1.84765504      21.66721911       0.00022327       0.00018979       0.00019337      -6.28854928
O        6.94562875      20.81906228       8.63607112       0.00022761      -0.00023016       0.00017523      -6.74517267
O       13.44886255       3.60429394      17.93393616       0.00014446       0.00032498       0.00014162      -6.67687623
O        8.38044417      13.14171344      17.03944155      -0.00007746      -0.00036101       0.00021109      -6.58822646
O       20.03328607       7.34171720      20.23522453      -0.00019974      -0.00015628       0.00041850      -6.71084191
O       16.00878861       7.96527695      17.26308484      -0.00017551      -0.00038827      -0.00023423      -6.90171687
O       21.03967646       9.85956733      21.31907379      -0.00002104       0.00037987       0.00027520      -6.60869597
O       18.09380487       5.88021566      15.13489067       0.00033229       0.00010389       0.00028575      -6.57107393
O       19.01600422       5.24035217       6.46296368       0.00031437      -0.00001324       0.00001006      -6.74512038
O        0.40247237       5.82902750      18.83226759       0.00001352      -0.00017107       0.00028965      -6.41228862
O       16.78792095       7.00796504       0.70084239      -0.00038759       0.00023046      -0.00003927      -6.56606550
O       20.06967302      15.62236113      21.69921361       0.00003878       0.00026053       0.00003157      -6.42440322
O       17.79226255       5.86843883       9.78560405      -0.00009903       0.00014255       0.00008681      -6.20625159
O        5.70198787      14.51021216       2.26836652       0.00009118       0.00040934       0.00027878      -6.87209066
O        5.59162596      20.77720831       2.26972251      -0.00034923      -0.00016881       0.00000731      -6.89913862
O        1.22428655      17.72731984      14.67636077      -0.00008606       0.00022123       0.00005171      -6.46936663
O       11.68460331      -0.10336553      22.22819015      -0.00023396       0.00015641       0.00016693      -6.41173942
O       14.74177243      20.27288513      14.25113454       0.00015264      -0.00012599      -0.00012914      -6.44353708
O        9.18477495       6.36836468       5.99709645      -0.00000770      -0.00010860       0.00010400      -6.50957837
O       18.62629553       0.15033571      19.69860509       0.00005222      -0.00025799      -0.00024205      -6.23341367
O        6.01641040       8.20398019      11.36151494      -0.00002539       0.00024472      -0.00018691      -6.58644055
O        7.70307593      11.31352956      21.02447970      -0.00008293      -0.00011370      -0.00001793      -6.95182624
O        1.90342762       9.29647467      19.43060757       0.00000892      -0.00000881       0.00042350      -6.35798602
O       19.24078186      12.95926161       4.21589526       0.00049034       0.00037328       0.00038804      -6.93936893
O       11.77144035       7.27528041       5.52410851       0.00004776       0.00008338       0.00032473      -6.57801102
O        3.99293550      20.30382464      13.82109577       0.00020643      -0.00008589       0.00029016      -6.38710284
O        7.18189767       7.71204656      13.93590198      -0.00017752      -0.00000457      -0.00003337      -6.66058127
O        0.89785279      11.43050818       0.68772140       0.00003970      -0.00002650       0.00031724      -6.73999155
O       22.00195568      11.83065372      12.01161838      -0.00002351      -0.00007525      -0.00008529      -6.37341362
O        8.90755541       9.50187059      15.79804097      -0.00013984      -0.00004073       0.00003136      -6.50358648
O        4.92765972       4.83210456      12.47197905      -0.00009718      -0.00000726      -0.00035145      -6.55362984
O       21.68423048      10.03636603      15.98026133      -0.00036788      -0.00031145      -0.00020892      -6.48792514
O        8.47925565       0.13737470       0.40503563      -0.00037490      -0.00010206      -0.00016816      -6.46812302
O        1.29401421      14.96125971      20.28459481      -0.00003518       0.00001593      -0.00001059      -6.82690361
O        3.53166665       5.10436198       0.18166690      -0.00012449      -0.00008185       0.00029585      -6.44125567
O       11.22183855      11.58733365      10.09345562       0.00008125       0.00006444      -0.00018209      -6.71468999
O       12.80935199       0.41631342      13.34905451       0.00022174      -0.00016612      -0.00008932      -6.82707375
O       12.48589777      20.81866488      19.99133156      -0.00002696      -0.00017102      -0.00028326      -6.37204744
O       14.36958083      18.22346807       9.44918498       0.00001327       0.00008240       0.00008129      -6.37328144
O       21.68238058       4.02293955      13.03287684       0.00007222       0.00011340       0.00017261      -6.65481144
O        3.12271085       1.04351861      21.99716235      -0.00030159       0.00019570      -0.00016576      -6.98521664
O        1.57820225      20.06722483       6.84728504       0.00021715       0.00020771      -0.00010971      -6.46987459
O       17.69701841      21.31430873       6.44635085      -0.00006354      -0.00003853       0.00019758      -6.57822388
O       21.14787917      13.65582235      19.09530047       0.00011902       0.00028813      -0.00009564      -6.70918539
O       -0.01913719       0.46537101       1.99431672      -0.00014245       0.00017944       0.00011363      -6.64926398
O       18.41282186      20.09180308       2.41103723      -0.00046739      -0.00015299       0.00010392      -6.68390701
O        1.12130895       3.67788095      15.70957598      -0.00001229      -0.00028237       0.00005695      -6.39676517
O        5.70352333      11.29697658       5.92610827      -0.00005851      -0.00033940       0.00038243      -6.53773906
O       20.91017070      21.14605915      14.80399474       0.00000381       0.00020005       0.00003969      -6.02949968
O       14.57367538      16.57169277      21.61263382      -0.00004077      -0.00021170      -0.00015548      -6.45720404
O        4.24193333       0.70452578      18.66106841      -0.00006065      -0.00004833      -0.00018699      -6.85505542
O       13.18592975      13.98209377      10.05166247       0.00013176      -0.00012557      -0.00018969      -6.92860923
O       21.57748730      15.27611264       8.27702278      -0.00003390      -0.00027066      -0.00025013      -6.83596589
O        6.20051642      12.35461426      19.10997379       0.00026806      -0.00042709      -0.00022208      -6.65272359
O        0.43322790      14.68207448       5.93636131       0.00034340      -0.00012916       0.00004430      -6.48331282
O        7.19125514      19.93600734      21.84262447       0.00012747      -0.00007326       0.00025686      -6.98309847
O       10.09642028      20.57754892      14.66490375      -0.00010373       0.00015850       0.00016912      -6.72941389
O       16.88091934      -0.11843359       3.30913094      -0.00011246       0.00018410       0.00011540      -6.70023231
O        4.79399077       2.76147729      14.67471517       0.00032685       0.00017819       0.00010325      -6.48507944
O        7.90648203       1.78701122       7.30152725      -0.00001357      -0.00003448       0.00002255      -6.17511290
O       18.85100127      12.29800683      17.46471140      -0.00001711       0.00004891      -0.00019337      -6.46561438
O        0.84590519      17.18260662       0.60316817       0.00007374       0.00015497      -0.00029524      -6.87427309
O        7.33376628       3.19215514       0.79230549       0.00023349      -0.00004256       0.00017569      -6.42798700
O       13.93214629      20.32221642      11.49648180      -0.00003971      -0.00011523       0.00020604      -6.54478049
O       18.60210025       1.31901941      14.41767101       0.00014944      -0.00022634      -0.00033787      -6.21812500
O        3.88505636       3.28153526       8.92072463      -0.00014373      -0.00010393       0.00028498      -6.33933355
O       21.29677195      19.51315539       1.62551445       0.00016316      -0.00006916      -0.00024296      -6.56183897
O        7.62514972       5.03041521       7.48670558       0.00002938      -0.00007843      -0.00000409      -6.57709675
O       15.59342857       2.76972473      13.21932096      -0.00036125       0.00002867       0.00011377      -6.18239335
O       14.84859019       4.03107424      20.56492316       0.00008757       0.00016199       0.00024244      -6.77306239
O        2.00486749       1.68905468      13.44400043      -0.00017221      -0.00007673      -0.00019119      -6.53453486
O       11.54466628       1.82005657       5.28537001      -0.00026275      -0.00010389      -0.00038731      -6.63118814
O        0.46742058      13.26584892       9.85643400      -0.00007379      -0.00000737       0.00015354      -6.40985555
O        3.35956917      14.92419485       0.36297936      -0.00024752      -0.00013584      -0.00002453      -6.61430810
O        1.29751006       9.10998379      10.86808669      -0.00025771      -0.00016455       0.00003999      -6.56697871
O       14.70941879      20.02274798      21.00993391      -0.00008356       0.00016603       0.00039343      -6.33089143
O       10.19428245      14.97287098      10.44259501       0.00025730      -0.00001149       0.00011382      -6.19769397
O       12.14193253      20.30625893      15.94949563       0.00007829       0.00011457       0.00054519      -6.40467536
O       21.61155664      20.90429370      12.43912501      -0.00014343      -0.00040080       0.00018943      -6.16431337
O       20.51454317       9.57079472      12.72210412      -0.00009082      -0.00021133      -0.00004987      -6.72847412
O        4.73293895      17.40772935      11.30213148       0.00035984       0.00037145      -0.00005216      -6.70935432
O       15.78931725       0.43614887       8.57546446      -0.00018498      -0.00013503      -0.00018796      -6.75791412
O       18.10916143       3.93332504       3.15423153       0.00003294      -0.00005899       0.00003680      -6.55237018
O       18.63468887      10.39567106       4.15685878       0.00001004      -0.00006666      -0.00008982      -6.74647082
O       10.18767300      16.10034171       4.48651880       0.00009362      -0.00009228      -0.00001890      -6.50348310
O        8.28864325       4.14074097      17.10653983       0.00017979      -0.00000692       0.00019119      -6.72659609
O       19.65604979       2.38838234      21.22647352      -0.00022271       0.00053633      -0.00008795      -6.56311712
O       21.31887295       5.79291358      16.21076666       0.00001152       0.00010461       0.00013538      -6.38896056
O       19.42188278       8.54457093       8.67612272      -0.00011881       0.00040466      -0.00012000      -6.70178686
O       18.42592040      17.33902714      16.10426436       0.00001167      -0.00006478       0.00022929      -6.76501766
O       11.92266983      19.13820831       0.18508991      -0.00026463      -0.00017700       0.00033781      -6.60567011
O       15.60161459      13.71763776       7.08008555      -0.00006821       0.00003938      -0.00002422      -6.67874220
O        3.16414407       6.85431597       4.96723183       0.00002148      -0.00008565      -0.00003540      -6.97330718
O        1.12169026       8.91961515       7.80112813       0.00003885      -0.00023773       0.00000953      -6.49579179
O        2.68175572      18.33484009       9.16293918      -0.00019769      -0.00030076       0.00036920      -6.41524343
O        7.72139116       3.33473715      19.60851742      -0.00032268      -0.00011896      -0.00000566      -6.62712835
O       10.98405868      21.53824158      18.08062114      -0.00002637      -0.00024129       0.00010349      -6.59542558
O       10.92434677      18.69291943      18.59430059       0.00037570       0.00000763       0.00006410      -6.73285998
O        8.63240735       0.71750685      16.59489620       0.00027550       0.00012830      -0.00029123      -6.55923204
O        7.67666566       0.62252078      10.85415527       0.00029412      -0.00002739       0.00009951      -6.67353194
O       10.88447563      12.28490055       2.76652668      -0.00021282       0.00025391      -0.00001016      -6.53780159
O        8.29274660      14.22746383      13.23959133       0.00010188      -0.00033745      -0.00027210      -6.64848503
O       21.45395909       1.42503116      13.98552025      -0.00012154      -0.00007285       0.00001530      -6.32088157
O        1.56733573       0.22805269      18.90627698       0.00005997      -0.00009596      -0.00018577      -6.60512026
O        5.12281328       3.26871073       6.43934027      -0.00032364      -0.00008319      -0.00002520      -6.56178236
O       15.08468399      20.26639084       7.43127966      -0.00012517      -0.00030707      -0.00014750      -6.88927480
O        4.56091632      10.32074467      19.06863422      -0.00032216       0.00011502      -0.00015847      -6.44537495
O       20.62278023      21.29191602       7.48270397       0.00011934       0.00003778       0.00010785      -6.07884902
O       16.15521936       5.11173558      18.20004154       0.00023876      -0.00008794       0.00008546      -6.55989395
O       13.52457909       4.77126334       5.68107536      -0.00006513       0.00020185       0.00002256      -6.94924452
O        1.40745723       6.47519527       8.91572914       0.00050009       0.00011228      -0.00008267      -6.35107595
O       10.78147125       8.08888150      13.52784010      -0.00025651       0.00017131      -0.00015332      -6.57669575
O        6.24792082      12.96479519      14.71313206       0.00010157       0.00005774       0.00022082      -6.39103535
O        6.39726298       9.62359813      17.36786706       0.00007478       0.00033014      -0.00042128      -6.53765356
O        2.82762816      17.56828539       2.23347635       0.00005664       0.00007393      -0.00031905      -6.66741516
O        1.49626961       3.29672311      19.83431093       0.00028792       0.00018446       0.00010887      -6.32201285
O        5.82270504      20.61730690      12.05596500       0.00003982      -0.00000181       0.00016458      -6.69342280
O       14.30521146      20.40211224       1.90157381      -0.00005065       0.00016644       0.00053009      -6.96621379
O        2.13077945       3.11590749       1.64558697      -0.00025833      -0.00029857      -0.00018081      -6.44608828
O       10.68774984       5.57711939      12.73143129       0.00042501       0.00034126      -0.00006927      -6.39259517
O        1.23478853      17.49971345       5.94549949      -0.00015331      -0.00014846       0.00000955      -6.64180164
O        8.66458600      20.49355316      12.22431964      -0.00027366       0.00020150       0.00015951      -6.44221978
O       10.50346140      10.49611147      20.70560732      -0.00012870       0.00006271      -0.00014654      -6.58835318
O       16.27041254      12.11277102      18.23241341      -0.00010477      -0.00012179       0.00022672      -6.28398139
O       11.85049917       1.01475146      15.78167444      -0.00003786       0.00011241      -0.00003956      -6.66551152
O       18.19631344       2.00421827       5.28884237       0.00010494      -0.00001873      -0.00025216      -6.72314327
O        6.03042296       8.77686090       6.67352689       0.00011965       0.00016090       0.00018518      -6.42217291
O       20.71340385      10.56880383      18.42687582      -0.00007662      -0.00001483       0.00015908      -6.51316503