768
Lattice="21.90879444 0.0 0.0 0.0 21.90879444 0.0 0.0 0.0 21.90879444" Properties=species:S:1:pos:R:3:forces:R:3:energies:R:1 Time=26499999.99969519 energy=-7681.578858011028 virial="-75.84540907 -6.25011625 25.06236707 -6.25011625 -112.43980007 17.94076174 25.06236707 17.94076174 -182.51177669" stress="0.00222821 -0.00059448 0.00238382 -0.00059448 -0.00125248 0.00170644 0.00238382 0.00170644 -0.0079174" pbc="T T T"
O        7.35966764      17.60595474       1.93215680      -0.00018698       0.00000932       0.00015302      -6.26080817
O        9.51739247      21.29350585      17.11384540      -0.00056337       0.00005905       0.00002400      -6.28072479
O       14.59626701       3.78159389       1.78462842       0.00002863       0.00014736       0.00023469      -6.83324541
O        9.10854555      10.45704787      15.81075360      -0.00005997      -0.00026156       0.00023783      -7.01651717
O        2.48721302       7.43406318      21.09113417      -0.00019882       0.00022792       0.00020822      -6.38931087
O       15.14769888       2.28126317      12.59097225       0.00039862       0.00029732      -0.00013463      -6.76043439
O       21.88380715      18.70306037       3.24351615      -0.00010925      -0.00028187       0.00009482      -6.41941093
O        7.41686527       7.12207323       2.60267261      -0.00002517       0.00000113       0.00029224      -6.51507152
O       11.68865188      19.54808143      10.93767541      -0.00008400      -0.00040107      -0.00025405      -6.64750897
O       11.54553703       8.64518653      18.20795600       0.00004761      -0.00010534      -0.00004068      -6.73855261
O        8.96093154      21.24768890       5.74856774       0.00043894      -0.00010423      -0.00018474      -6.17697793
O        7.15136317      11.92903785      20.62098201       0.00009709       0.00004575       0.00003072      -6.57833026
O        6.72668487      17.91409718      14.83129271      -0.00025082      -0.00006167      -0.00017128      -6.68923407
O       20.64130771      11.12375099       9.46540046       0.00046375       0.00019673      -0.00023560      -6.29442231
O       21.03696270      18.30089415      14.14610822      -0.00008677       0.00016339       0.00017285      -6.66290660
O       19.32110113      19.69242784      11.26106382       0.00017378      -0.00008490       0.00000459      -6.44070213
O        0.66817363       7.61792127      15.77980619       0.00020684       0.00017439       0.00000924      -6.58487684
O       15.09660436      21.06104684       0.33300855      -0.00023849      -0.00003743       0.00023093      -6.29043322
O        6.65002789      12.09313022      15.17688283      -0.00009817      -0.00029119       0.00028301      -6.73386363
O       11.73455659      18.22807346      18.39851961       0.00018870      -0.00020935       0.00009726      -6.68550424
O        7.71391934      20.53632577      14.52009831       0.00024036      -0.00032297       0.00018112      -6.39954088
O        8.42249356      17.57513922       7.84140751      -0.00017713       0.00012304       0.00016962      -6.63686609
O       -0.14871615      11.54367970       4.06424849      -0.00000939       0.00013315      -0.00035768      -6.28971436
O       17.32962182      15.58933665       2.29342632      -0.00018309      -0.00002249      -0.00002345      -6.73558203
O       19.00902015      19.78559550       3.43884980      -0.00011631       0.00014977      -0.00012301      -6.95204760
O       11.72508154       3.95545205      20.46411262      -0.00001510       0.00042688       0.00003851      -6.48717380
O        1.54010699      17.91755819      15.19917038       0.00028493      -0.00007657       0.00051133      -6.70134412
O        1.18643290      12.18455710       1.58001074       0.00018733      -0.00014755      -0.00034619      -6.42490527
O        3.30061741       0.23342785       5.66325845      -0.00014012       0.00011162       0.00002914      -6.46583067
O       11.41189064      20.83617361       3.17200220       0.00022021      -0.00031130      -0.00015425      -6.42883559
O        1.01402731       0.92420442      10.98697568       0.00008665      -0.00046610       0.00018738      -6.74769863
O        0.26705241       9.44542081       6.58927033       0.00018326      -0.00008802      -0.00016459      -6.63424215
O       14.80639953       9.24210209       3.86308381      -0.00008585      -0.00019683      -0.00008988      -6.71824316
O       13.14021656       7.78182238      12.76693574       0.00018848      -0.00015771      -0.00000529      -6.49353183
O        0.40910573      14.79856660       2.45127144       0.00016397      -0.00024824      -0.00000471      -6.33036589
O       20.99719815      17.78477039      11.23371880       0.00008107      -0.00027559      -0.00015208      -6.73650477
O       14.32398850      15.53191689      17.26577124      -0.00017898      -0.00008931      -0.00001566      -6.39430354
O        5.52810360       0.37358253       4.71689974      -0.00000292      -0.00066995      -0.00010471      -6.39189413
O       18.40328066      10.58608530       0.45502351       0.00009122       0.00011721      -0.00040846      -6.71339873
O       19.05677159       4.38475355       6.69578641       0.00035298      -0.00037405       0.00017167      -6.41578930
O        0.03019768       4.05988402       7.58632697      -0.00020638       0.00028508       0.00018167      -6.68081836
O        8.19182615       1.30199467       7.72503771       0.00028358       0.00008462       0.00008537      -6.71990578
O       17.41942415      12.32694989      20.64903603      -0.00013194       0.00007727      -0.00009685      -6.29139775
O       21.35321305      19.14623491      16.86465656       0.00011054       0.00022620       0.00017328      -6.72766298
O        8.62539937       3.30520690       9.97652828       0.00006966      -0.00010969       0.00023844      -6.51052324
O        4.89228641      10.32798376       4.85282483       0.00019342       0.00005820       0.00028732      -6.97273790
O       11.84121350      13.67337739      22.25387814      -0.00026838       0.00052211      -0.00010737      -6.37257207
O        6.22141532       4.21143812      10.95276822       0.00033898       0.00022990      -0.00031427      -6.49237547
O        5.68526823       1.92668815      12.47504958       0.00008747       0.00030170      -0.00025226      -6.57773488
O       10.47894329      15.47993978       8.18212594      -0.00013584       0.00013791       0.00015807      -6.57513183
O        5.59076661      16.72899884       3.41314110       0.00002289       0.00008739       0.00060278      -6.14309271
O       18.78568880      15.43666915      20.74908991      -0.00038423       0.00050046      -0.00020779      -6.32191037
O       15.38329292      12.77956629      18.66362915       0.00019408       0.00041187      -0.00008743      -6.52515409
O        7.53321185      14.95325331       6.94694313       0.00010195      -0.00020981      -0.00045929      -6.29885697
O        7.54721372      20.03765067       7.65779801       0.00013603       0.00018898      -0.00007031      -6.49442443
O       16.62164146       2.94568257      14.88702612      -0.00000180      -0.00026130       0.00009637      -6.37524700
O        1.81234828      20.45157329      16.62026681       0.00003271      -0.00012399       0.00002780      -6.46312309
O       18.50430990      14.68772866      10.81211510       0.00002911       0.00009186      -0.00021008      -6.61390948
O       14.42540718      19.43409011       9.64496867      -0.00022294      -0.00009761       0.00029044      -6.65210973
O       21.00060922      20.15340111       1.04951432      -0.00002728       0.00044766      -0.00003120      -6.58576167
O        6.57808216       5.41446614       4.65143431       0.00015018      -0.00013190      -0.00018333      -6.21487122
O       21.33040341       5.16115704      14.69142934      -0.00020773       0.00026087      -0.00001581      -6.68144768
O       16.16687191      14.70953451      15.07274438       0.00008399      -0.00053142       0.00018022      -6.46215944
O       18.09473635       3.36310226       9.22532098      -0.00012342       0.00029139       0.00001862      -5.97437829
O        6.64009433      21.30346846      20.81717069      -0.00020959       0.00011820      -0.00003648      -6.42543769
O        9.77119815      13.52477937      15.96045794       0.00010856      -0.00041219       0.00021785      -6.52000603
O       18.23136894      16.90752307      15.73814844      -0.00001895       0.00022590      -0.00020935      -6.71139857
O        9.43555909      13.81744017      19.11159861      -0.00008625      -0.00026358       0.00012960      -6.60251101
O        3.31198081      11.59534860      18.99434116      -0.00020100       0.00006678      -0.00036055      -6.51989330
O        9.17657887      18.50957394       5.18769045       0.00042847      -0.00008688       0.00043380      -6.57954990
O        0.97565922      19.84255019      11.11274648      -0.00023169      -0.00019912      -0.00019672      -6.39421176
O       16.78167523      20.58885940      19.99674013      -0.00003186       0.00002021       0.00002111      -6.73410847
O       14.68021762      19.15977461      17.15408513       0.00020402      -0.00013128       0.00060128      -6.44144448
O        7.01267328       0.59471133      18.34739375      -0.00015352       0.00037438       0.00015326      -6.21295972
O        2.05277213      10.54902806       5.02490175      -0.00005703       0.00009473       0.00080675      -6.50091392
O        1.88478650       5.58295274       5.89530190      -0.00019388       0.00007137      -0.00004983      -6.79198214
O       11.45046862      15.34701995      16.23729113      -0.00013934      -0.00028482      -0.00021557      -6.55040731
O        8.93176025      13.86336068      13.61400817      -0.00034899      -0.00031235       0.00018131      -6.60229493
O        9.48482571       0.85268095      14.99173457      -0.00012286      -0.00041858      -0.00001920      -6.46642104
O        0.07909515       4.95844404      22.50722730      -0.00038546      -0.00020709       0.00027646      -6.50734706
O        1.69342843      17.14204449      12.66594057       0.00014539      -0.00001336      -0.00011268      -6.72092803
O       20.09367052       6.03141932       2.18928845      -0.00012051      -0.00007736       0.00007831      -6.70572967
O        6.75198062       1.44887221      10.03380586      -0.00013020       0.00010552       0.00021750      -6.60632037
O        5.72919760      14.38098062       3.98482327      -0.00002654      -0.00033273      -0.00035797      -6.51799841
O        7.53623184      18.81530206      12.42236342       0.00005016       0.00013643      -0.00026184      -6.42738698
O       12.96448062      17.03796112      20.74918619      -0.00031514      -0.00033273       0.00010729      -6.72606663
O        6.38830076      11.85576180       2.55306510      -0.00011850      -0.00004205      -0.00006666      -6.37846328
O        0.23711282       9.03869509      19.91691821      -0.00025229      -0.00010400       0.00002873      -6.63498458
O       19.77852752       3.30135744       3.69861577      -0.00013379      -0.00019495       0.00013003      -6.01863629
O       20.73697040       2.42905400      18.70244261       0.00033109       0.00009474       0.00007486      -6.61350281
O       18.14796267      11.87601394      10.55879665       0.00010210      -0.00030303      -0.00006833      -6.48638618
O        1.69590951       2.03297438      18.31842575       0.00034429       0.00021089      -0.00016419      -6.68242491
O       12.94346191       0.18025472      17.07484892       0.00047577       0.00001589       0.00045314      -6.60370914
O       18.80794362       2.97456555      16.91192941       0.00032577      -0.00004795      -0.00015166      -6.61201854
O        9.74543789      20.99494818       8.32073084      -0.00002630      -0.00027270       0.00011440      -6.18070004
O       15.23919112      12.18457638       5.34901194      -0.00007238       0.00020060       0.00014228      -6.51467998
O        4.99610036      12.48581078      22.03598464       0.00000210       0.00024961      -0.00041819      -6.38020689
O       19.84983904      10.58458736      15.96247863       0.00010733      -0.00006085      -0.00038500      -6.69554600
O       20.43404922       8.41581849      17.32677207       0.00009556      -0.00021161       0.00004290      -6.70282129
O       10.79648410       7.15225290      20.91741850       0.00050555       0.00016443      -0.00013426      -6.38175543
O        8.40301105      10.93440265       1.26309193      -0.00004247       0.00011817      -0.00044925      -6.31133355
O       11.37793091       0.95772863       5.44851028      -0.00004821      -0.00007300      -0.00018033      -6.42791430
O       12.71648712       6.83477536      16.01658181       0.00021465       0.00030048       0.00022108      -6.66647239
O       20.49011168       2.98196415      10.50900071       0.00028327       0.00039792      -0.00031629      -6.26610863
O        2.64232628       5.90458383       8.58177437       0.00076823       0.00026505      -0.00007758      -6.59364388
O       16.28965482       1.40771680       2.12325534       0.00033790      -0.00013609       0.00010223      -6.47746349
O       10.64303296       2.83055616       7.28772412       0.00017054       0.00012364       0.00008688      -6.89736190
O       15.79907804      17.35251299      14.82336986       0.00013944       0.00023540       0.00040947      -6.43608866
O        6.96941107       9.28298323      13.13237660      -0.00002591       0.00027000       0.00003927      -6.80980263
O        5.61257128      21.14608568       9.37119192       0.00035941      -0.00025117       0.00012140      -6.64852855
O        4.30266699       0.01308245      18.19364714       0.00006790      -0.00014937       0.00019676      -6.37605408
O        2.60289197       3.88882716       1.38669542       0.00014312      -0.00001709       0.00048831      -6.60775998
O       10.38086242      19.97905961      19.87840019      -0.00044143       0.00019073       0.00020358      -6.91948359
O        8.79170264       6.04151401      11.56665899      -0.00006997      -0.00018484       0.00032353      -6.63348520
O        5.09717434       6.71538650       6.81524160       0.00060928      -0.00010793      -0.00010666      -6.79776429
O        9.20748390      13.98819033       9.90221824      -0.00027484       0.00012799       0.00007962      -6.72181050
O        8.35026809      10.59392359      10.64678282      -0.00028759      -0.00016794       0.00027726      -6.65484876
O       18.11732630      13.27634977       7.94161531       0.00030998       0.00016875       0.00007167      -6.68389628
O        7.44561083      20.12637584       3.56133107       0.00003311       0.00081777      -0.00018306      -6.65243071
O        1.41078457      21.77440043       0.97401637      -0.00004353      -0.00042594       0.00003901      -6.78555898
O       11.15118295       4.81627119      10.84962457       0.00007540       0.00010906      -0.00078613      -6.53290920
O       21.24211068      21.76944977       3.08061089       0.00006410       0.00001256      -0.00010860      -6.49803196
O       16.66560550      21.62024179       5.00170770      -0.00017777       0.00013075       0.00007267      -6.49993762
O        4.69341513      11.43989273      12.35309662       0.00002030       0.00003929       0.00014840      -6.27036423
O       11.07164246      18.49654477       0.24201930      -0.00004032       0.00001806      -0.00014510      -6.60337937
O        4.04872853      15.97879253       5.49110489       0.00001930       0.00020355       0.00031338      -6.46029034
O        6.15872090      17.89387824       5.74593024       0.00035391      -0.00019511       0.00007821      -6.40141091
O       12.22639264      20.50395531       8.63754166       0.00007038       0.00023464      -0.00021001      -6.42138999
O       10.29770978      12.14198928       2.38243737       0.00020826       0.00013641       0.00037290      -6.39945722
O        8.69891718      10.06019138      19.26461868       0.00002842       0.00033542      -0.00001485      -6.70343921
O        3.93072420       9.03351838      13.73214882      -0.00012336      -0.00000605       0.00019931      -6.80756207
O        9.68424155       8.56166975       1.46882206       0.00006340      -0.00051106       0.00012443      -6.57101927
O       16.94646881       5.77513559       9.02973863      -0.00041486      -0.00035770      -0.00024508      -6.16311174
O       10.35637147      15.74896885      21.54286843      -0.00025730      -0.00011261      -0.00022774      -6.51889254
O       18.87333360      18.81432530       8.55851370      -0.00000644      -0.00010151      -0.00004401      -6.61078820
O        6.38618875       1.73178610      15.51293042      -0.00000457       0.00032365       0.00037180      -6.57652405
O        6.99738313      15.08355964      19.39120522       0.00032189      -0.00018749      -0.00002629      -6.48066546
O        8.12202739       9.59105479       3.48453026      -0.00011723       0.00005051       0.00014077      -6.38361968
O        2.94830305      17.09200562       2.88431731       0.00025809       0.00030891       0.00034890      -6.48637332
O       16.62966574      15.01628718      18.89570918      -0.00025662      -0.00028984      -0.00030344      -6.70119572
O        6.81608497       5.07150184       8.43959542       0.00003356      -0.00039600       0.00041798      -6.60792346
O        7.87506558      16.20849025      10.41324199      -0.00017189       0.00023191       0.00005135      -6.86259497
O       18.24568569       1.39710345      20.15435137      -0.00038073      -0.00010891       0.00021220      -6.51849606
O       19.23307905       3.98255642      20.66476111       0.00032544      -0.00008717      -0.00016110      -6.56156303
O        0.28524334      21.51770529      13.82054574      -0.00021178      -0.00019981      -0.00013933      -6.79349904
O        4.57975757      19.24757826       7.46342165       0.00000835      -0.00003676      -0.00004272      -6.80953883
O        9.83662633      18.70744231       2.57770657      -0.00006876       0.00023072       0.00026063      -6.41366098
O       17.76674416      13.40950226      16.76948538      -0.00023060      -0.00005936      -0.00026282      -6.35759922
O       11.17893250       2.28183164       2.33504165       0.00001473      -0.00029159       0.00010626      -6.81274334
O       16.75207385      10.08139044      18.12087353      -0.00023067      -0.00013959       0.00026160      -6.23446277
O        5.49837387      16.46912843       7.70277837       0.00018051      -0.00041067      -0.00017356      -6.05904721
O       10.17929006       8.59481118      10.49481181       0.00022716       0.00006573       0.00030739      -5.91773081
O       11.82862918      17.25279036       2.96704710       0.00033964       0.00005072      -0.00018603      -6.31757909
O        5.46138383       7.42312730      20.73177941      -0.00016821      -0.00024893      -0.00007142      -6.17748239
O        7.11903417      12.13659522       5.03869059      -0.00003342       0.00008416       0.00022808      -6.77926747
O       10.16881992       5.29279749       8.44972235       0.00022971      -0.00005707       0.00000776      -6.72179052
O       18.23981910      22.12842566      17.37393630       0.00011151       0.00020396      -0.00004552      -6.87544866
O        1.54735888       9.69414879      14.68912113      -0.00009058      -0.00024721      -0.00011638      -6.72008393
O       16.76019449      14.59523210      12.59658349       0.00005267      -0.00021336       0.00006265      -6.49345461
O        6.34771335      21.12510952      12.22841046      -0.00028965      -0.00026109       0.00035260      -6.34321819
O        5.86310201      10.03745880      10.44599312       0.00018137       0.00003382       0.00031659      -6.66407962
O       16.44740034      17.83077637       1.22176131       0.00024884       0.00030995      -0.00037835      -6.17712294
O       14.72912350       6.48255454      10.74019339       0.00011635      -0.00026175       0.00006521      -6.34250234
O        1.41332421      15.05286112      15.18427869       0.00003901       0.00003732       0.00022424      -6.65811663
O        9.91506267      19.58431898      13.33358561      -0.00042833       0.00037138      -0.00016369      -6.84684047
O        0.85865550      12.22247379      19.62152428      -0.00040470      -0.00009704      -0.00021643      -6.44252802
O        6.11424763       6.55596563      12.29274677       0.00013275       0.00024565      -0.00004415      -6.55377918
O        8.15383412       7.40007283       9.28764439       0.00004066      -0.00014145       0.00046408      -6.77807174
O       14.84594340       9.99292658      11.83994951      -0.00024346       0.00017265      -0.00015653      -6.41248000
O       19.87342613      16.05664607       3.88109579       0.00000937      -0.00002118      -0.00028340      -6.59864578
O       10.28888641       8.54515459       4.85246822      -0.00007119      -0.00010565       0.00003424      -6.40786920
O        1.95932869      15.90713279      10.18983321       0.00035264       0.00024891      -0.00033651      -6.73462727
O        9.36369178      18.62268304      16.25724620       0.00024562       0.00008107       0.00005770      -6.65367663
O       13.62629641      17.33896543       7.52669630      -0.00043473      -0.00055662       0.00029434      -6.83784246
O       14.02638713      11.57633269      13.75711355       0.00005466       0.00016037      -0.00041241      -6.70306720
O       12.17589383       4.93310701       6.31801837       0.00039825       0.00001772      -0.00001957      -6.68134498
O       11.42224801      14.42667486       2.98836672       0.00015507      -0.00009023       0.00002475      -6.53574552
O        1.10068181       5.93576037      10.98324804       0.00023553      -0.00010494       0.00025273      -6.49069123
O       13.49436675       0.64674529       6.81349416       0.00042521      -0.00027692       0.00034588      -6.61941906
O       13.76525388       3.81957182      18.39488072      -0.00003240       0.00022517      -0.00041827      -6.56900359
O        5.53668691       8.42314605       1.65388033      -0.00077051      -0.00004372       0.00025493      -6.61335472
O       18.89299852       1.07832292       1.25826086       0.00032252      -0.00026051      -0.00029167      -6.65300408
O        0.17790167      18.03123479       8.87069106       0.00022157       0.00004016       0.00027293      -6.93685215
O       16.46066580       6.53242321      20.30782909      -0.00004920      -0.00018235      -0.00026648      -6.53866011
O        2.81787230      18.60315708      20.95368398      -0.00064219      -0.00021935      -0.00008688      -6.55693584
O       15.19459439       1.28555310      20.58882512       0.00013529      -0.00004914      -0.00035634      -6.00512744
O        9.90060551       5.59825661      18.50714699       0.00025255      -0.00043314      -0.00037188      -6.34515601
O        5.60977867       2.88456614       4.21965377       0.00010006       0.00043394      -0.00012864      -6.26811159
O       20.87166156      10.75260299      -0.17654774      -0.00014679       0.00034905      -0.00033250      -6.38961818
O        7.05571768      15.86469368      12.81799560      -0.00036132       0.00000440      -0.00040818      -6.48872802
O        7.36741403       4.07897139      13.26465210      -0.00006002      -0.00028752       0.00019504      -6.54098331
O       12.97384692      17.67698789      15.59812008      -0.00035262       0.00038222      -0.00011865      -6.42923869
O       12.37084345       4.60658742       2.69707508       0.00013168      -0.00019253       0.00005539      -6.66269208
O        0.64075938      11.92273388      13.19130431      -0.00014820       0.00014965      -0.00026813      -6.48888966
O       15.04276951       7.28532580       6.42537599       0.00007793       0.00011681      -0.00028885      -6.58502171
O        2.52594275      13.10550386      21.47515186       0.00002734       0.00002990       0.00009224      -6.27943777
O        2.41378419       4.96760228      20.66154609      -0.00004616       0.00029947      -0.00030784      -6.90956428
O        8.10827122       7.08369272      14.36519042       0.00015366      -0.00053486       0.00011768      -6.60101519
O       11.84604691       9.68679766       6.92987205      -0.00048721       0.00019594       0.00035464      -6.93102803
O       15.32689243      13.73196737       7.35413636      -0.00002223       0.00003374       0.00000470      -6.70907950
O       19.24675244       3.49672989      13.26520819       0.00024256      -0.00032194       0.00037700      -6.61336446
O        3.83143722       5.34412188       3.62734998      -0.00016514       0.00006770       0.00017505      -6.39216289
O        5.81749692       9.71249424      19.01764810      -0.00024605       0.00008159       0.00008026      -6.51207328
O        6.23413971      14.58714182       0.92725481      -0.00038348      -0.00005206      -0.00002265      -6.38002651
O       15.16049550      21.60458999      18.13935493      -0.00014178      -0.00005558      -0.00028395      -6.35355856
O       17.85518820      11.79679920       5.58782672      -0.00002879      -0.00008693       0.00018246      -6.27837418
O       12.73787520       9.43929759      15.38677766       0.00006481      -0.00001063      -0.00032588      -6.81168544
O       12.80058187       1.18308264      19.56114413      -0.00059483      -0.00001659      -0.00007433      -6.58399109
O       14.65755866       8.41920451      18.94417069      -0.00018754      -0.00009467       0.00037762      -6.36351788
O        6.67214937      15.23487536      16.35401191       0.00010213      -0.00022502      -0.00022750      -6.66553895
O        7.83339416      16.58021076      21.52874506       0.00003183       0.00023185      -0.00006988      -6.49757066
O       11.19059664      20.02225998       5.61914354       0.00024814      -0.00007564       0.00005805      -6.21874575
O       10.98640103      11.38401376       9.41065128      -0.00001832      -0.00016833       0.00033353      -6.56593451
O       17.02238197      15.73338540       6.24079087       0.00006638      -0.00007925      -0.00024422      -6.35541613
O       14.45336429       5.68028213       8.31352832      -0.00035183       0.00040657      -0.00052767      -6.42488103
O        5.69595808      18.07778007       9.73945074      -0.00008507       0.00016473       0.00033740      -6.53657233
O        4.91201137      15.61419493      10.84824298      -0.00039220       0.00004882      -0.00013165      -6.60782166
O        2.17793336      10.47377207      11.58242503      -0.00019628      -0.00022110      -0.00003615      -6.58630192
O       11.52769918      11.66330118      12.32604457      -0.00060281      -0.00015907       0.00039850      -6.15214797
O       13.97968641      13.76034216      12.48504644       0.00028626      -0.00012559       0.00040897      -6.33303577
O       21.41515580      21.86275884      18.19976143      -0.00014940       0.00027864       0.00005366      -6.69539041
O       16.66251916      18.17568333      10.37608094      -0.00013997      -0.00013556      -0.00019604      -6.56141813
O       13.25083353       4.29524221      14.41545343       0.00009824       0.00014249       0.00019961      -6.67107745
O        9.78978830       3.90290526       4.59575394       0.00010844       0.00040053      -0.00007831      -6.58140779
O       12.73642950       6.42273731      18.66370270       0.00014937       0.00009603       0.00021325      -6.24898473
O       17.02656155       2.01843570       7.33229726       0.00012852      -0.00023554       0.00027801      -6.51995764
O       16.13040054      13.17147185       0.85968850       0.00021230       0.00009069       0.00007494      -6.50415359
O        2.93373964      14.03380310      12.54733113      -0.00002895       0.00003795       0.00012085      -6.75460253
O        9.10898819      17.24376505      18.95976921      -0.00029860       0.00029501       0.00006971      -6.58046684
O       19.90077166      17.53028610       1.49335054      -0.00007155      -0.00006633       0.00008496      -6.32685386
O        4.31871043      19.45604658      17.94276718      -0.00013353       0.00031136      -0.00006810      -6.53299523
O        3.71241923      11.04789728       8.36167967       0.00016772       0.00023314      -0.00011082      -6.72227146
O        0.53847736       6.71069113      18.44139468       0.00039118       0.00032609       0.00016774      -6.53814897
O        3.20402966       1.36397164       2.79091648       0.00014914       0.00003059      -0.00016855      -6.45583586
O        0.78911316      15.57975758       6.57901852       0.00004740       0.00046918       0.00009404      -6.56657141
O        8.45606624      10.23601246       7.70134630      -0.00047936       0.00001320       0.00016096      -6.65911894
O        3.52437931      14.55665442       1.69321604       0.00033319      -0.00003485       0.00025794      -6.26470403
O       12.17847080       7.06665781       9.97013877      -0.00048977       0.00018913       0.00016421      -6.33003534
O       14.95635271      11.97391993      10.28768671       0.00016392      -0.00007939       0.00019389      -6.32398354
O        4.15435427       7.85419202       4.16513931       0.00024188      -0.00012028      -0.00010597      -6.68011517
O       18.91928419       8.93401209      19.54727967      -0.00004818      -0.00019686      -0.00019661      -6.46276798
O       19.72532989      15.97567010       7.32312183       0.00061234       0.00003742      -0.00046003      -6.81081123