768
Lattice="21.67125615 0.0 0.0 0.0 21.67125615 0.0 0.0 0.0 21.67125615" Properties=species:S:1:pos:R:3:forces:R:3:energies:R:1 Time=4099999.99968429 energy=-7694.198914455162 virial="-66.67867094 62.11181588 -39.42019748 62.11181588 -58.37911844 62.6107135 -39.42019748 62.6107135 -100.61866786" stress="0.00255208 0.00610257 -0.00387309 0.00610257 0.00336752 0.00615159 -0.00387309 0.00615159 -0.00078257" pbc="T T T"
O        0.95589696      10.83484026      17.56388023       0.00000851      -0.00011738       0.00011121      -6.57197276
O       11.49372342       8.12295119       5.85253166      -0.00016812       0.00001356       0.00007095      -7.04682759
O        0.90702522      16.17371287       4.53553627      -0.00001815       0.00053541      -0.00001532      -6.34635949
O       19.88798948       2.86281142       3.64261796       0.00010446       0.00018266      -0.00002682      -6.42268973
O        6.58036695       5.46766191       4.26332318       0.00003231      -0.00025905       0.00002656      -6.70613365
O        8.08813945      20.20716021       7.95924859       0.00005931      -0.00028495      -0.00014492      -6.61810803
O       12.50904287       8.53110458      17.20773825      -0.00006092       0.00018125      -0.00017714      -6.45384660
O       11.49870612      16.79963299      10.07289635      -0.00011708      -0.00012351      -0.00007677      -6.58427882
O        2.20527640       1.55270528      18.80996381      -0.00022878       0.00024176       0.00006292      -6.65069762
O       11.21633442      12.24021709      14.63296586       0.00019076      -0.00021448      -0.00003914      -6.29870858
O        3.48739200      11.80947737       9.72009628      -0.00011152       0.00025171      -0.00013692      -6.51244529
O        4.38298081       7.52721829      21.65890499      -0.00000023      -0.00005330      -0.00006639      -6.68829781
O        6.04359566       9.90450343      16.42899303       0.00003069       0.00005050      -0.00029111      -6.15813642
O        7.59948117      18.18304523      17.98414151       0.00020417      -0.00022388       0.00041284      -6.06745734
O       12.34619808      21.58299899       6.66682450      -0.00009030       0.00036364       0.00011147      -6.37850781
O       21.62181692       8.57008469       2.44853277       0.00000300      -0.00000450       0.00016609      -6.46059692
O       20.49769621       8.87613475      12.12439984       0.00002923       0.00003806      -0.00016139      -6.70960971
O       20.40051211      21.89479757      16.96993016       0.00023191      -0.00027406       0.00009353      -6.51639267
O       17.92146877      18.44131157      11.59700081      -0.00031825      -0.00024311      -0.00018812      -6.00518934
O       18.42358423      17.20440820       4.39315671      -0.00040443       0.00013311       0.00004243      -6.35423841
O       15.02117187       0.26625825       5.50833796       0.00012835      -0.00014777       0.00018756      -6.62759251
O        9.98802836       1.45665233      15.11733572      -0.00002627       0.00004910      -0.00010374      -6.26140739
O       12.20998248      13.91230310      16.34009339      -0.00011054      -0.00011315       0.00027478      -6.43938057
O       15.68146428      12.92991502      10.70805896      -0.00023500       0.00001171      -0.00034386      -6.59563409
O       21.60817142      17.55274317       7.31574535       0.00006897       0.00038089       0.00010875      -6.16277573
O       18.43370776      10.31723645       0.49032291      -0.00006052       0.00009113       0.00020337      -6.39878034
O        7.10029061      19.35963688       4.06688027      -0.00014961      -0.00017280      -0.00012446      -6.72786352
O       10.22827069      13.91731639       1.96324256       0.00007186       0.00006400      -0.00030374      -6.73598689
O       13.24978644      20.99658238       9.04657650      -0.00012060      -0.00010148      -0.00027042      -6.40816741
O        3.40429138       9.07154879       9.59873991       0.00064786      -0.00014597       0.00020083      -6.14955868
O       17.96037319      12.80135705       1.30039949      -0.00015086       0.00028427       0.00005898      -6.04481913
O       21.91383084      20.23659844       2.17831932      -0.00049519      -0.00043674      -0.00003492      -5.98715828
O        5.14773134       7.56391932       6.16182389      -0.00033667      -0.00029644      -0.00008175      -6.78474710
O       11.68037770      14.44270244      12.95032099      -0.00012556      -0.00008435      -0.00002797      -6.70280441
O       18.91038862       5.52359024       3.34931065       0.00010867       0.00007621      -0.00012975      -6.79300945
O       15.27295481      -0.27926680      20.03150295      -0.00015625      -0.00020851      -0.00006201      -6.40771299
O        9.80350176       5.98690726      20.99817867       0.00019120      -0.00007001       0.00001143      -6.64291989
O       18.56259746       0.43118293      12.11106149      -0.00017693       0.00012844      -0.00036235      -6.12698776
O       20.59615841      16.07497336      18.02401011       0.00016450       0.00020289       0.00014118      -6.74969298
O        6.19375923      13.53450384      16.69200183       0.00013558      -0.00003079       0.00013312      -6.39235630
O        7.20074471       7.93958689       9.92687875      -0.00018067      -0.00000718       0.00010511      -6.04714385
O        3.70963567      11.18579179      16.94121836      -0.00010778      -0.00028548       0.00032635      -6.54617177
O        3.54837314      13.73218131      17.12002552      -0.00006541       0.00005406       0.00001127      -6.59407295
O        6.05043595      12.99962782      14.10003743       0.00027606      -0.00024641       0.00030615      -6.24215011
O        5.25587342       9.49562202      19.08645056      -0.00014826      -0.00011768      -0.00010965      -6.73083573
O       13.48494333      11.59396799      15.60596613      -0.00049711       0.00027671      -0.00018069      -6.61400130
O       13.11454731       5.69008007      13.25016215       0.00016935      -0.00031103      -0.00009400      -6.44151627
O       16.61287385      18.12392933       6.26793461       0.00006273      -0.00000839      -0.00003910      -5.99727608
O        9.52807166       1.99376915       0.10331821       0.00015103      -0.00007948      -0.00003504      -6.01481249
O       10.44847538      19.02228112      19.01306769      -0.00007250       0.00014184       0.00017621      -6.55056818
O        6.01623757       6.35998977      18.55382840       0.00001188      -0.00011914       0.00004548      -6.01485921
O       10.51308832       0.14547137       9.03160097       0.00040964      -0.00004546       0.00005456      -6.51179110
O        0.73508047      15.88983139      20.71549252      -0.00000981       0.00044826      -0.00015042      -6.58482314
O       19.00503090       1.45899787       7.50593210       0.00006397       0.00011380       0.00051988      -6.34761348
O       10.31321542       6.07967229       2.34998453      -0.00015632      -0.00000294      -0.00006145      -6.35112012
O        5.87079219       8.43614611      13.58612951       0.00002625       0.00022427       0.00006767      -6.51500587
O       11.70852071       3.47947617      12.25772753      -0.00012557      -0.00002140      -0.00001265      -6.25574259
O        7.93238373      10.47279005       6.84663478       0.00017560      -0.00030668       0.00017537      -6.68421332
O        9.16967255      13.90860161      14.28202426      -0.00010635      -0.00013485       0.00032098      -6.22349525
O       12.59040648      16.30756337       3.07440499      -0.00036746      -0.00044832       0.00026369      -6.08695825
O        1.74871699      13.27664522      12.03032514      -0.00039262      -0.00019669      -0.00054346      -6.61052753
O        2.31964575       9.94512087       4.33379845      -0.00007229       0.00011497      -0.00004852      -6.73146196
O        1.62873490       5.13936673       7.26367163      -0.00005357       0.00000075      -0.00024570      -6.53193281
O        5.64246457       2.51754565       0.90738460       0.00019810       0.00033355       0.00047000      -6.30120335
O        8.58265424      14.55346017      16.68308483      -0.00032569       0.00034066      -0.00007642      -6.37833998
O       17.08347315       1.70174606       3.87296537      -0.00019314      -0.00006587      -0.00016171      -6.36741487
O        1.12207140       2.51422617       8.05371135       0.00037650       0.00017125      -0.00027200      -6.33222792
O       21.14007470       1.43061488       9.50898514      -0.00000884       0.00019842       0.00021270      -6.31844553
O       18.11630665      10.50591551       3.01488752       0.00031302       0.00009814       0.00007535      -6.48093585
O       12.66602017       9.04210632      14.34062770       0.00010359       0.00004661      -0.00031942      -6.14990397
O        1.59712355       2.52676500       2.32583470       0.00014901       0.00010435       0.00008297      -6.35970955
O        6.33542172       5.47463892      21.06433434      -0.00013481       0.00017061      -0.00008020      -6.49384075
O       14.26067652       9.40285533      12.01105282       0.00020802      -0.00046906       0.00005832      -6.46055474
O       17.91757863      20.74404313      15.38892820       0.00008706       0.00007138      -0.00010111      -6.88396378
O        3.64415804      19.82221761      11.76481431       0.00012461      -0.00016986      -0.00004657      -6.81160697
O       12.81301892       4.13953147       9.40395636      -0.00008641       0.00003794       0.00001832      -6.11310683
O       10.14496601       9.12365344      16.28318363       0.00034996      -0.00019166      -0.00013898      -6.45303177
O        3.54213062       3.82140450      21.69312608      -0.00041372      -0.00003106       0.00008792      -6.31250915
O       15.07310203      14.65554489      21.06487148      -0.00021428      -0.00012261       0.00023263      -6.52791129
O        9.04985526      14.74070165       4.47560406      -0.00017169      -0.00004462      -0.00019980      -6.23324921
O        9.12280373       1.46831853       2.56140508      -0.00012042       0.00032787      -0.00023600      -6.43378373
O        0.30515406       9.47683690       6.35762156      -0.00012314      -0.00000205       0.00017080      -6.36383386
O       10.38661065       1.28238629       4.80358980       0.00034299       0.00018316       0.00005469      -6.24296711
O       21.18047732       1.98997002      19.34187334      -0.00004932       0.00011625       0.00027823      -6.21559747
O        0.27715731      17.28213975      15.97162066       0.00011924      -0.00017972      -0.00030021      -6.52577036
O       15.29121815       9.92052211       2.66897340       0.00001401      -0.00020726       0.00009065      -6.74516269
O       21.66213997       3.48267434      14.48629881      -0.00010668       0.00007565      -0.00018021      -6.50444080
O        0.56765497      -0.19929365      11.40435737      -0.00013758      -0.00036142       0.00042757      -6.23693824
O       13.99490859      15.13867343      14.86676586       0.00022752       0.00002355      -0.00001626      -6.44166307
O        2.85130661       8.53045567       7.01183504       0.00037592       0.00013791      -0.00016746      -6.89278952
O       13.27641727      14.46976272      18.66727875      -0.00008685       0.00007730      -0.00009702      -6.59257617
O        8.93478132       6.56445708       4.65962609      -0.00008845       0.00005058      -0.00006130      -6.71514574
O        1.20149024      11.45114650      14.35382616      -0.00011303      -0.00005638       0.00015739      -6.70716434
O       18.73444059      21.39052659       9.38375557      -0.00025722       0.00040439      -0.00018918      -6.52307992
O        1.49068181      13.43875265       9.53795477       0.00010328       0.00008990      -0.00003516      -6.17248293
O       15.61465450      14.83067063      12.44845929      -0.00051257       0.00007079      -0.00022987      -6.54455851
O        7.30430187      11.17259181       3.17733941      -0.00018932      -0.00007231      -0.00020621      -6.61401435
O       14.21032965       6.65662558       5.07181562      -0.00010448       0.00014119      -0.00017840      -6.24606238
O        6.21244777      18.41728276      14.49241957       0.00023336      -0.00024015       0.00002479      -6.49710461
O       19.61284007      12.83491300       8.91367401      -0.00025445      -0.00000326       0.00021623      -6.74205291
O       17.66582352       5.31591092       9.20057528       0.00021736      -0.00025350      -0.00007367      -6.30959715
O        0.70611428      19.67661370       5.25279161       0.00021229       0.00022011       0.00008094      -6.60169118
O       17.78107187      17.80673677       8.50674282       0.00019443      -0.00001750      -0.00015011      -6.51076619
O       12.00360589      14.14010377       4.06846058       0.00009044       0.00036257      -0.00017800      -6.15926606
O        8.25562987       3.13360020      16.15678903       0.00007345       0.00003361      -0.00002487      -6.49228492
O       19.87459604      19.89893852      11.09403363      -0.00011559      -0.00009128       0.00014774      -6.17791498
O       14.95639798      10.06866960       9.42104877       0.00020752      -0.00006157      -0.00005194      -6.19407954
O       11.75570688       2.38977848       6.92831827      -0.00007000       0.00008040       0.00006674      -5.97375529
O       10.07776819       1.76500542      19.27729290      -0.00047410       0.00002552       0.00001437      -6.30710503
O       15.72951083       5.34242832       7.23968350       0.00002034      -0.00013896      -0.00009698      -6.30127043
O        3.69477859       1.91248942      13.28862834      -0.00011569      -0.00018621      -0.00029790      -6.48797206
O       17.32617072      12.08664759      16.43534135      -0.00001655       0.00024850      -0.00022034      -6.63086540
O       15.18069780       2.85403480       1.72991588      -0.00005377      -0.00018926      -0.00023852      -6.33135591
O       17.27275263      11.05470467       8.83966811       0.00000422      -0.00000902       0.00004631      -6.60407358
O       15.17406740       3.58566859      15.26045110      -0.00001709      -0.00000614       0.00020885      -6.58041475
O        4.27943265      19.73858082      15.55684790      -0.00015492       0.00008538       0.00014727      -6.44383515
O        1.01412802       4.94154185       3.98509563       0.00024652       0.00011543       0.00007511      -6.96005872
O       11.79921044      10.75514571       1.27893437      -0.00023652       0.00017447      -0.00004223      -6.83880852
O       13.14238482       1.32835354      10.47966788       0.00013307       0.00008767       0.00048182      -6.41480439
O        5.45769844      14.43215416       2.72301457       0.00012507       0.00000056       0.00014420      -6.49071935
O        8.61685401       9.02027857      18.49302415      -0.00024468      -0.00006746      -0.00012514      -6.39968717
O       10.42090933       3.98646432      17.60904415      -0.00047882      -0.00030410       0.00000533      -6.73266588
O        8.81930716      18.11752085       9.47158786       0.00001897       0.00012010       0.00001552      -6.57876204
O       16.71839712      15.62091790      16.31066143      -0.00000547      -0.00014149       0.00015610      -6.46545019
O        1.48110062      17.78915535       2.05822377      -0.00045751       0.00016121      -0.00003028      -6.73424683
O       21.04644297       0.96654210       6.12081012      -0.00012661      -0.00002172      -0.00009576      -6.31986667
O       16.77425491       6.07344605      15.18812070       0.00018024      -0.00005728       0.00011864      -6.56067166
O       18.38376140       3.08710406      17.09690298      -0.00002238      -0.00001958      -0.00018510      -7.00538861
O        6.92839958       6.01489282      13.25003430       0.00011958      -0.00002463       0.00023136      -6.37943567
O       21.67766145       0.51153271      14.21127175      -0.00032832       0.00019927       0.00007979      -6.46104236
O        4.37418201      17.20575867      17.21367007       0.00003802      -0.00033710       0.00008013      -6.71367420
O        0.24579377       9.09390269      14.83043359      -0.00019617       0.00009721       0.00004141      -6.56679068
O        9.04575703      16.48514248      11.90235863      -0.00032320       0.00018661       0.00024723      -6.75313798
O       20.63492749       5.15050424      16.35556698       0.00023804       0.00003850       0.00002139      -6.30250857
O       21.25491910       2.78046770      16.97262373      -0.00016423       0.00011021      -0.00012106      -6.10184785
O       11.20271182       5.60699672      11.18932179       0.00003531      -0.00005273       0.00028424      -6.06450681
O       16.45702851      17.77761225       2.02986358      -0.00029023       0.00022133       0.00028607      -6.51116218
O        1.39053736      19.25688885      14.79315350       0.00013693       0.00023640       0.00004917      -6.33972264
O        0.01991009       7.16511925       7.64910462       0.00022086       0.00011204      -0.00024420      -6.23233058
O       18.04171286       4.26534195      19.67576437      -0.00016143       0.00023509      -0.00000778      -6.33955547
O        4.32095199      11.91067181       2.59866954      -0.00023324       0.00003647      -0.00019843      -6.29754577
O       11.31903136      11.22732231       6.26724777       0.00008084      -0.00006625      -0.00006763      -6.74827714
O       15.09975334      13.38460962      16.93997126       0.00010641       0.00019484       0.00027564      -6.07497583
O       18.03328885       6.68637855      17.97175279       0.00003054      -0.00008826      -0.00025607      -6.63292945
O        8.52862344      16.05192528       2.27510111      -0.00018765      -0.00018890      -0.00015699      -6.35148490
O       21.16152230      18.74209079      18.70998141      -0.00030039      -0.00012337       0.00050242      -6.28451948
O        1.48658283      16.26084199      11.97833452      -0.00026822       0.00026027       0.00003190      -6.28833418
O        5.14078339      19.42721150      18.41176296      -0.00005152      -0.00013706       0.00028618      -6.22324508
O        9.80233835      11.48340866       8.82064354       0.00007518      -0.00021733       0.00006248      -6.64440169
O       12.45015931       3.08127104       4.45569275       0.00009878       0.00000248      -0.00015982      -6.56035549
O        1.92948798      21.20761772       6.90896864       0.00001678       0.00001410      -0.00020613      -6.76417320
O        0.86373240       3.55532999      21.10772019      -0.00011228       0.00003622       0.00004471      -6.44445072
O        7.26434626       8.05285465      20.72189716      -0.00004092      -0.00005376      -0.00022784      -6.69568056
O       18.61807656       4.12177491      14.11794609       0.00017523      -0.00010914      -0.00001665      -6.53244673
O       19.39053739      20.98579470      20.28910521       0.00046862       0.00049795       0.00020923      -6.66069197
O        6.60594616       2.74232087       5.74487788       0.00010656      -0.00001158       0.00010027      -6.60010918
O        7.23787122       5.22956254       6.99953689      -0.00000593      -0.00001024      -0.00013239      -6.40654121
O       10.66393920       0.74723036      11.94262447       0.00005551      -0.00015348      -0.00010331      -6.66167571
O       19.48417267      16.65579684      20.86034782       0.00007202       0.00016039      -0.00036587      -6.68524354
O       21.28013152       3.94608963       5.91391064       0.00005026       0.00021261      -0.00011787      -6.43327450
O       11.61030155       4.15413873      15.08951510      -0.00026047      -0.00012175       0.00013394      -6.16527103
O       19.33880716       1.64175533      14.52614446      -0.00003597      -0.00055723      -0.00009418      -6.75786716
O        0.74810727      13.67403117      18.02687661       0.00013635      -0.00005902       0.00005893      -6.66779207
O       13.87995578       7.93151335       7.27177236       0.00019277       0.00001677       0.00020202      -6.46219827
O       13.65830544       5.70707105      16.17662220      -0.00008758      -0.00010836       0.00015774      -6.49480243
O       17.92699678      20.92831442      18.23411213       0.00023194      -0.00006878      -0.00020540      -6.49992393
O       15.83983775      19.11309873      18.36818318       0.00012877      -0.00019720       0.00017870      -6.23046421
O        3.94789502      20.08011324       8.85724436       0.00002259       0.00001437      -0.00008759      -6.21375663
O       13.59758418      18.09036257       8.93875555      -0.00004711       0.00020924       0.00033832      -5.90964972
O        2.03844473      18.53530867      18.39771077       0.00022236      -0.00001207       0.00026244      -6.56635586
O       20.27563326       6.36424931      13.43649560      -0.00015141       0.00013084      -0.00023409      -6.54408060
O        9.71977289      13.01306145      18.35165333       0.00000457      -0.00039082      -0.00029046      -6.35210708
O       11.81493211      16.67349347      18.18565609       0.00031835      -0.00015809       0.00051184      -6.10703252
O        7.81324109      15.93141021       8.59481622      -0.00003145       0.00002165       0.00000613      -6.24987931
O       15.16071247       4.45367753      10.10506656      -0.00007208      -0.00028574      -0.00029563      -6.65454928
O       13.07150760      17.69338941      15.88676116      -0.00009974       0.00018309       0.00006337      -6.53355883
O        2.93118032      17.36412011       9.94879056       0.00006677       0.00027601      -0.00001572      -6.41573450
O        6.42713063      15.31176679      18.80623834      -0.00017420      -0.00021373       0.00002289      -6.05041434
O       12.92855281      18.89626262       2.58358905      -0.00027918       0.00008061      -0.00017546      -6.38173861
O        7.25688753       3.19375028       3.19995388       0.00007263       0.00009044       0.00019292      -6.45655231
O       21.32869373      11.39158408      11.06542629       0.00023306      -0.00008548      -0.00016779      -6.45029179
O        5.37014481      20.96630857      13.38959231       0.00020457       0.00029326       0.00040513      -6.68803308
O        8.37172875       0.19723317      13.36748939      -0.00004083       0.00005717       0.00005064      -6.62196572
O        7.08490819       5.58339227      16.28394501      -0.00002512      -0.00002008      -0.00013930      -6.38893740
O       20.81326120      16.76296827      13.59296979      -0.00056989      -0.00041631      -0.00026725      -6.26456904
O       14.02999051       1.91366275       7.78490742       0.00012378       0.00022026      -0.00019898      -6.25221526
O        8.88496630      11.65666192      15.98283032       0.00016606       0.00032354      -0.00014687      -6.18425178
O        6.81003425       5.54045161      10.71004243      -0.00001459       0.00014337      -0.00066467      -6.46065412
O        1.66123187       2.16788172       5.27820020       0.00015408      -0.00014251      -0.00004808      -6.56397312
O       13.50034047       5.16216330       2.70292423      -0.00026547      -0.00002447       0.00008237      -5.99176200
O       20.11630694       8.43814740      19.06273161      -0.00000895      -0.00009888       0.00016807      -6.55676124
O       20.22169364       3.91460741      12.00088486       0.00024644       0.00028284      -0.00000364      -6.07582647
O       16.71268847       1.45728231      21.58898872      -0.00016651       0.00002338       0.00038699      -6.45758462
O       10.14647339      11.74701106       3.43353184       0.00025282       0.00003681      -0.00013038      -6.24725684
O        5.53625339      13.08073300      19.38817547      -0.00011590       0.00018885       0.00029932      -6.28817567
O       16.60814882       2.76889036       7.86105338       0.00002174       0.00005820      -0.00021966      -6.66830046
O       15.93131880      19.55645015      10.04962000      -0.00012496      -0.00009133      -0.00015092      -6.21239464
O       15.48139726       7.65154517      17.20856894      -0.00005862      -0.00016848      -0.00005439      -6.26379003
O        3.10341012      13.36058799      14.42139893      -0.00027251       0.00026707       0.00016219      -6.27642332
O        7.35063872      20.06819168      16.29453860      -0.00019898       0.00000011       0.00001171      -6.51680451
O       15.35065331      12.77005946      14.30745216      -0.00000937      -0.00003354       0.00010737      -6.21218947
O       18.95087879      13.70224185      20.75782050       0.00048581       0.00007474      -0.00021082      -6.37718827
O        4.80522837      19.63602585       3.00933104      -0.00010097      -0.00019062       0.00021953      -6.65593386
O       21.60087290       0.94100257       3.49587394      -0.00014497       0.00009091       0.00000763      -6.48666552
O        9.03926684       2.94306094       6.41137887       0.00032406      -0.00018221      -0.00020926      -6.55514023
O        1.41265579       4.33908054      18.39106626      -0.00017371       0.00025024       0.00015733      -6.13350096
O       11.43940461       3.59099104       1.73298523       0.00005850       0.00006731       0.00001664      -6.04383811
O       16.54797577      11.14887344       5.53949883       0.00021536      -0.00006782       0.00002783      -6.70419860
O       14.05962265      16.87615205      11.54354523       0.00016209       0.00031208      -0.00006679      -6.34205895
O       20.82844104      13.78639010      13.07966628      -0.00001423      -0.00012772       0.00021076      -6.54631622
O        0.69129546      19.42544618       9.48214293       0.00004919      -0.00005775      -0.00002013      -6.73260885
O        6.95952637       0.97518243      15.28963586       0.00017675      -0.00001383       0.00008001      -6.50265927
O       18.41035414       2.78615392      10.50337314      -0.00001206       0.00009464      -0.00011537      -6.78331329
O        6.60785836      14.00899918      10.03517891      -0.00025554      -0.00005997      -0.00001221      -6.64348708
O       11.15605232      13.51623710      20.87762655       0.00012183      -0.00015371      -0.00011526      -6.71104808
O       12.78867814       4.86801645      18.49022798       0.00035312      -0.00040059      -0.00001516      -6.52128072
O        2.60612666      12.56506572       6.19820309      -0.00014759      -0.00009524      -0.00025481      -6.55401561
O       17.96528504      21.56233420       2.00677412       0.00005293       0.00040277       0.00013823      -6.56454785
O       19.75605266      15.36200232      15.65828336      -0.00028955      -0.00004195      -0.00043480      -6.70746160
O       12.87287882       1.21824411      14.38830222      -0.00003387      -0.00002510      -0.00027181      -6.50387954
O        7.73217286      10.75945016      13.48040316      -0.00037008       0.00015518       0.00021945      -6.12171442
O       16.80834076       2.35887705      13.03172539       0.00014178       0.00002889      -0.00032766      -6.29792640
O       20.92445384       9.72208571       8.63987454      -0.00033378       0.00018193       0.00009582      -6.28768940
O        1.58086605      15.34514177      14.44076106       0.00027674      -0.00016944      -0.00006620      -6.66202623
O       20.42157260      17.36380006      10.62959199       0.00031003       0.00036763      -0.00001366      -6.35107626
O       17.17018991      19.54582788       3.91196444      -0.00020281       0.00002138       0.00050579      -6.51633035
O        9.21358841      16.34977539      18.70467199       0.00008203      -0.00002842      -0.00005169      -6.42174201
O       19.84428591      10.57457532      14.10039967      -0.00019413      -0.00017861       0.00007807      -6.83209213
O       20.40947376       5.07143226      19.10996532       0.00005967       0.00017995      -0.00037747      -6.42412366
O       13.23297410      14.66646707      10.04176612       0.00012004       0.00013871       0.00012149      -6.52029770
O       18.42543331      12.95793063       4.54713133       0.00004367       0.00035366      -0.00010658      -6.67777221
O        3.69665870      14.84865170       9.11887322      -0.00018033      -0.00012146       0.00029306      -6.61614678
O       12.91744389      11.70997298       4.01163641      -0.00000178      -0.00002282      -0.00006174      -6.40662570
O        4.74516116      10.20610306       5.15011819      -0.00013813      -0.00018614       0.00033434      -6.76436750
O        9.07887661       4.08873737      13.48751937       0.00009405       0.00028734       0.00013881      -6.30357528
O        5.49375150       0.63329927      10.74326267       0.00008809       0.00011418      -0.00001429      -6.94805699
O       16.75494203       8.11177898      11.26639410      -0.00006385      -0.00019129       0.00004425      -6.39460499
O       17.29611633       4.89958387       1.42999638       0.00021333      -0.00011289      -0.00045271      -6.36721012
O        5.04464024       4.11542764      11.93455197       0.00021306      -0.00003768       0.00020103      -6.47671186
O       12.31398640       0.33952572      19.62202706       0.00008660       0.00001856      -0.00020417      -6.52663622
O        4.56314200      20.93347186       5.38096094       0.00005675      -0.00032078       0.00014058      -6.64343915
O        4.23392636       1.94859721      20.23147625       0.00014532       0.00003940       0.00008098      -6.29573572