768
Lattice="22.30808258 0.0 0.0 0.0 22.30808258 0.0 0.0 0.0 22.30808258" Properties=species:S:1:pos:R:3:forces:R:3:energies:R:1 Time=21499999.99214157 energy=-7650.6489304116385 virial="-139.49398023 -82.75697156 6.65567524 -82.75697156 -209.56813077 -49.03934878 6.65567524 -49.03934878 -168.95234695" stress="-0.00064243 -0.00745494 0.00059956 -0.00745494 -0.00695487 -0.00441758 0.00059956 -0.00441758 -0.00329611" pbc="T T T"
O        1.68974214      12.42221648      14.44732384       0.00032890       0.00011493       0.00002534      -6.29982571
O       15.00560574      15.71760324       6.66197569      -0.00007548      -0.00016790       0.00026788      -6.52164885
O       21.99313027       6.65042523      11.75759884      -0.00003400      -0.00047357       0.00030647      -6.60862022
O       19.65761904      14.98337597      17.69712289       0.00015383      -0.00018357       0.00007288      -6.74535359
O       21.16555737       6.59729363       9.22773491       0.00014621      -0.00019676       0.00019204      -6.68952943
O        1.05512266      20.84117204      11.82967107       0.00024307       0.00018777      -0.00003676      -6.77325219
O        7.80487507       4.66264702      20.18481411       0.00011262       0.00018184      -0.00017001      -6.51716661
O       13.10123838       7.40130350      10.21707516       0.00011328      -0.00023535       0.00002386      -6.53732390
O       20.25659435       2.75459889      15.17902827      -0.00008069      -0.00026314      -0.00042363      -6.75177237
O       15.29574285      20.76659806       5.75312200       0.00037951       0.00013533      -0.00039721      -6.70160186
O       15.83639759      12.21663357      15.29422684      -0.00002120       0.00012202      -0.00017761      -6.67023003
O       21.42218486      16.56892277       1.53025947       0.00020033      -0.00028263      -0.00004082      -6.83360963
O        7.64557103       1.63604389      19.29803888      -0.00054948       0.00017746       0.00003980      -6.43008619
O       19.54814486      18.64977585      21.74116326      -0.00010182      -0.00023007       0.00021128      -6.43511001
O        4.25696433      21.03940886       8.71825487       0.00003656      -0.00012706       0.00024247      -6.62594001
O        3.22471905       9.97216282      15.59723744       0.00000718      -0.00003587       0.00009740      -6.62611690
O        1.69582560      16.45036303       7.90762381      -0.00035423       0.00016297      -0.00044225      -6.11427739
O       12.63630213      14.75649241      21.26947762       0.00009074      -0.00010656      -0.00014345      -6.42973713
O       15.08930201      10.37435558       4.80851175      -0.00000624       0.00031280       0.00012978      -6.89098811
O        3.02555065       2.97710365      14.00644742       0.00007003      -0.00018936       0.00032858      -6.74148808
O       10.77395523      10.38785682      17.96744916       0.00037538      -0.00004048      -0.00022540      -6.75276723
O       21.54750008       8.94396832       5.43688861      -0.00016659       0.00025412      -0.00016304      -6.48124362
O       12.11627796       3.15471918       6.44777262      -0.00028138       0.00006533       0.00014520      -6.40632632
O       12.79987355       9.67118993      22.25588532      -0.00002384      -0.00018723      -0.00022684      -6.67707564
O        2.48355989      12.00851228      10.40974386      -0.00003194      -0.00017204       0.00001265      -6.18133895
O        7.34941133      12.32985697       3.64684157       0.00024050       0.00007434      -0.00013845      -6.50517810
O        7.89978801      15.83738171      21.68249097      -0.00028162      -0.00000715      -0.00031081      -6.65646789
O        4.37174013      18.99791799       6.69347508      -0.00008883      -0.00044686       0.00004073      -6.48892017
O        6.53318683      19.46027099      20.92705042      -0.00018151      -0.00015810      -0.00009666      -6.65251184
O       19.27626856      13.39152968       3.29481834       0.00006767      -0.00038883      -0.00002818      -6.75736805
O       13.56784621       6.77686411      22.39138598       0.00016037      -0.00007905       0.00005023      -6.43522844
O       17.34720159       5.60862759      13.98720173       0.00026458       0.00002055       0.00023895      -6.79068752
O        2.54956102      16.60683032      11.74851360      -0.00003153      -0.00016514       0.00039577      -6.88252529
O       17.04953912       1.19245628       5.36773050      -0.00005938       0.00001543       0.00012668      -6.49236614
O        6.60585293       3.52322150       8.94026744       0.00013011       0.00020424       0.00043118      -6.72692871
O       20.72676174       3.51487229      18.01456700      -0.00014773      -0.00025103       0.00043824      -6.41613148
O        6.17428562       2.06793983      21.85862945      -0.00003711      -0.00012672       0.00001160      -6.72813983
O        8.73444643      -0.88237759      14.59619517       0.00012948       0.00025641       0.00045692      -6.67732581
O        1.51875071      18.08492933      16.65698661       0.00002100      -0.00007328       0.00018175      -6.81197335
O        5.07290842      11.25654290       9.49426862       0.00029597      -0.00018933       0.00003407      -6.56942576
O        2.01499478      12.84332302       3.68521562      -0.00002507       0.00042410       0.00008379      -6.58722260
O       18.70583667      21.09357491       5.90871150       0.00021684       0.00016490       0.00008106      -6.69140513
O       -0.04435486      10.80924092      13.24599832       0.00040218       0.00049865      -0.00002397      -6.16605160
O        3.00319913      21.50094215       6.50104201       0.00018180      -0.00006951       0.00007630      -6.68825836
O       15.87658057       4.09262547      11.92108956      -0.00017755       0.00007342      -0.00034607      -6.30625941
O       15.41858033      19.49275868      13.42663882       0.00015809      -0.00011634       0.00029010      -6.57098834
O        7.69213793      13.19561478      17.54084525      -0.00028791      -0.00007350      -0.00014083      -6.57140334
O        5.18174319      14.15503627       3.50251255       0.00021322       0.00025345       0.00028044      -6.35944546
O       -0.07408950      10.82665444       2.19221675      -0.00026160       0.00034166       0.00013272      -6.46063959
O        8.49882095       8.51126260      11.32659482       0.00050064       0.00013178      -0.00022935      -6.54468627
O       17.54876435       3.27175069      19.05094832      -0.00014773      -0.00007170      -0.00010291      -6.82776776
O        9.10110408      12.94584397       7.84437310       0.00012504       0.00031070      -0.00034406      -6.58413107
O        5.18131135      14.72671901      18.86998518       0.00008702       0.00028649       0.00041911      -6.44561153
O        1.90383720       9.42168450      17.91339715       0.00013133      -0.00017727      -0.00008797      -6.62159749
O       12.46097823      19.17824892      13.56189920       0.00012072       0.00013752       0.00008279      -6.78557473
O       11.99507868      12.39643181       0.96944504       0.00002288      -0.00033995      -0.00033294      -6.77642504
O       12.90606107       3.83352534      18.03333305       0.00005878      -0.00000587       0.00009527      -6.56080645
O       10.31658351       3.80262646       9.93983845       0.00009343      -0.00018297       0.00027711      -6.30505464
O       11.17609548       8.30279928      19.83431065      -0.00017977       0.00013229      -0.00024389      -6.76935880
O        5.26312218       5.46624083       7.18507670      -0.00009265      -0.00013282      -0.00039711      -6.29939838
O       19.76639261      12.03048632       6.41507523       0.00008572       0.00010127      -0.00027499      -6.41508858
O       16.14440129       7.98475563      14.41017228      -0.00013992       0.00014055      -0.00019418      -6.84435873
O       19.74513603       1.18554040      12.73372941       0.00024214       0.00024749      -0.00004232      -6.63226306
O        5.49847217      14.19536206      15.65409746       0.00032070      -0.00024518      -0.00014060      -6.54824583
O        5.93390426      21.80393042      14.14992245       0.00014479      -0.00003831       0.00002974      -6.32519655
O       17.28676065       5.20550834       9.78084966      -0.00035645      -0.00036964      -0.00026198      -5.95557212
O        2.54284254       6.47168305      17.58054461       0.00016805      -0.00025418       0.00001697      -7.00572049
O        2.36237707      15.63207696       2.45278351      -0.00004207      -0.00003414       0.00027351      -6.41189844
O        8.47341446      18.62506473       2.71485193       0.00018388       0.00003928       0.00006769      -6.44355909
O       17.57138241      17.24516347      12.69063192       0.00007361      -0.00022064      -0.00009211      -6.50258253
O       12.29943059      18.74162866      18.15515471       0.00033614      -0.00061646      -0.00001827      -6.19862826
O       14.45881968       0.79144399      22.22681143       0.00003282      -0.00007337       0.00000815      -6.56437773
O        2.13576446      11.66447880       7.42151077       0.00058250      -0.00014586      -0.00018203      -6.71931546
O       16.09548160      11.60951615       1.68172296      -0.00064163      -0.00014193      -0.00003571      -6.53136028
O       11.29625130       0.24589498       5.37136832      -0.00040389       0.00007724       0.00000896      -6.47581786
O       12.67562657      11.78304763       4.06139965       0.00014470       0.00021696       0.00005118      -6.61174707
O       14.33891695       2.54635597       5.04579269      -0.00027089       0.00008686      -0.00036833      -6.61634197
O       10.42333317       1.37317459      10.94194472       0.00022296      -0.00028919       0.00048412      -6.72853432
O        0.44076637       9.00867859       7.98529693       0.00014959       0.00004342      -0.00035639      -6.48694128
O       13.55328453      18.06355971       8.52479351      -0.00007843      -0.00006729       0.00017708      -6.56129116
O       21.36810210      15.27759747       4.32128931      -0.00016018       0.00007868      -0.00002148      -6.33332815
O       18.64247024      12.22490963      16.58712875       0.00040506       0.00005781      -0.00036176      -6.76612750
O       10.53884548      15.20054121      19.77335872       0.00024305      -0.00004196       0.00012780      -6.55074515
O       21.92219833      13.63384140       2.54003447      -0.00045202      -0.00010043       0.00032429      -6.46660612
O        4.13833701      13.59573462       6.12107116       0.00018590       0.00003553      -0.00015198      -6.41791261
O       12.24085379      20.39574470       3.26661938      -0.00001913      -0.00026232       0.00015441      -6.34928374
O       16.70966488      19.76720271       3.72849591      -0.00009935      -0.00021868       0.00013377      -6.39159158
O       21.12612062       1.38197859      19.50531701      -0.00008661      -0.00004359       0.00004833      -6.40405665
O       12.52028810       3.67444933      21.18656160      -0.00063750       0.00041174       0.00011935      -6.77683285
O        2.75633912      19.13193418       3.85616287       0.00009528       0.00024630       0.00017391      -6.48410315
O        5.87918442      13.27652986      11.74458208      -0.00035468      -0.00012804       0.00006943      -6.46399307
O        5.18501392       7.61603094      15.18248931       0.00015325       0.00023548      -0.00001610      -6.56591268
O       11.24737785      15.94190912       8.52949833       0.00027157      -0.00006498      -0.00000681      -6.48853288
O       12.07572295      18.55896035      10.74579332      -0.00001058      -0.00022279       0.00017418      -6.65220809
O       10.01128938      19.60719345      13.08154343       0.00004462      -0.00022074       0.00011566      -6.59124836
O       18.77911419       3.74188637      12.72431532       0.00009461      -0.00032460      -0.00016797      -6.59253114
O       16.62013716      17.18410753       1.73112311       0.00012492       0.00024079       0.00005395      -6.62835835
O       10.85317830       8.42853879       1.73045153      -0.00023921       0.00004212      -0.00011449      -7.03489409
O       12.76777827      21.78328058      13.30881770      -0.00002114       0.00010122       0.00002995      -6.80046127
O        6.06464910       1.94427064       6.78845121       0.00034587       0.00015335      -0.00030294      -6.50910484
O       -0.30610176      10.84234614      20.12175207      -0.00029792       0.00010590       0.00013403      -6.71582848
O       16.77279150       3.75886546       3.63885055      -0.00006028      -0.00015162       0.00026822      -6.60131534
O       17.21530590       2.95104653      15.54823780      -0.00030484       0.00002247      -0.00004569      -6.85125530
O        2.19269245      11.94172008      18.33662708       0.00007885       0.00011860       0.00002169      -6.55445464
O       19.85522796       5.34209284      15.51143782      -0.00024045       0.00027160      -0.00033747      -6.70732807
O        5.29576326      15.97608934      10.99052252      -0.00003995       0.00004669       0.00004208      -5.94915389
O       22.25804021       5.80626001      14.51180730       0.00011142       0.00018372      -0.00027816      -6.43740126
O       14.27799562      13.74147257      12.78581078      -0.00024506       0.00021745      -0.00009669      -6.56284591
O       11.19660382       3.15730094       1.05749105       0.00004134       0.00026686       0.00018423      -6.87749818
O       18.55496694      22.54809890       2.80753898      -0.00019592       0.00000135       0.00012294      -6.35360209
O       10.83168863      11.95139256       9.48183006       0.00020900      -0.00020048       0.00025659      -6.39944471
O        8.35965273      10.15255537      19.82118962       0.00016053      -0.00030114      -0.00023010      -6.80834105
O       12.48627260      21.41399085      10.36519535       0.00020465       0.00003631       0.00002671      -6.30317310
O        7.91570751      10.21633907       8.69032605      -0.00018342      -0.00006432      -0.00055483      -6.89938987
O        1.01736134      14.37751263      12.81103138       0.00008506       0.00023565      -0.00046757      -6.58344253
O       18.27082992       9.86377912      13.92576249       0.00059465      -0.00010999      -0.00007201      -6.49546575
O       17.53225270       6.35308663       7.18006888      -0.00052965      -0.00055181       0.00012003      -6.54863287
O        9.69444921      10.81503488      -0.06112967      -0.00028165      -0.00009258      -0.00016131      -6.48047848
O       20.35380052       8.13517928      13.63045715       0.00000515      -0.00031532      -0.00020260      -6.61042796
O       18.11863461      14.54324580       5.77584095      -0.00014803       0.00010037      -0.00025510      -6.70044668
O        2.26015741      10.05019647       2.61586269       0.00007758      -0.00011893       0.00042055      -6.48464183
O       13.77710824      15.44792807       9.46299087      -0.00034655      -0.00007914       0.00032632      -6.58116422
O       12.03504877       8.54656477      14.99097663       0.00019746      -0.00001691      -0.00044368      -6.91512029
O        8.15004021       0.67250088      12.49702319       0.00054942       0.00021311       0.00005007      -6.52011385
O        1.97221655       4.20576775       1.38001763      -0.00004913       0.00011099       0.00005578      -6.58790836
O        6.06525829      18.82222188       4.42782741      -0.00067456       0.00031031       0.00020616      -6.91041135
O        7.64374240       0.07920408       0.99116874      -0.00000340      -0.00028136       0.00006633      -6.42748935
O        8.35635105      14.08227191      12.48893739      -0.00039947       0.00024414       0.00005792      -6.63549845
O        3.35187932       2.01220598       7.33283234      -0.00018907      -0.00005837       0.00040956      -6.21198253
O       14.40835770       4.47342906       9.11663389      -0.00064842       0.00024935      -0.00002597      -6.08812397
O        4.61114102       4.96908254      12.18451697       0.00017697      -0.00003755       0.00012177      -6.82009718
O        7.64818738      16.40190343      15.28415433      -0.00047116      -0.00016317       0.00002521      -6.65374854
O        4.48622480       9.34259070      19.09652596       0.00005388       0.00024484      -0.00000508      -6.72139789
O       10.23073884      21.13828292      18.26598773       0.00010543       0.00010833       0.00024158      -6.40584349
O        2.74317774       0.91304250      16.68602153       0.00021470      -0.00006937      -0.00023066      -6.82616607
O        7.75990791      15.80603257       2.78055802      -0.00002701       0.00023503       0.00027370      -6.62021227
O        6.68888737      21.87089282      20.28572335      -0.00032266      -0.00036886       0.00018960      -6.45722481
O        6.86731721       6.67752130      13.17200604       0.00010069       0.00001320       0.00002273      -6.57105790
O        8.66317265       5.81118883      15.55332015      -0.00021420       0.00049303       0.00029129      -6.40725155
O        2.32665473       9.95301705       5.31985886       0.00012362       0.00000593      -0.00012083      -6.24618503
O       12.66640464       4.56730046      11.03927925       0.00025789       0.00039241      -0.00003030      -6.66862940
O       19.33242457       6.95933986       4.73186103      -0.00003216      -0.00006776      -0.00008424      -6.60747277
O       15.06125803      21.85691667      15.22767650      -0.00015486      -0.00018967      -0.00007675      -6.83535427
O        5.27520203       8.42336033       0.30054552       0.00023732       0.00008216       0.00022331      -6.76487906
O        4.28516639       3.76136498      20.14942828       0.00028980       0.00013379       0.00022119      -6.75123384
O        9.30966882      18.09338026       9.51462921       0.00008387      -0.00001496       0.00013705      -6.77959365
O       17.30894208       9.79565784      17.61226330       0.00002718       0.00005151       0.00019232      -6.59465181
O        7.12793822      21.23164383       3.53383946      -0.00003414       0.00016031      -0.00029139      -6.34504069
O       13.01928264       6.22750323      19.61784180       0.00025908      -0.00000038       0.00005344      -6.55233537
O        4.85143206       1.31838613       9.23478895      -0.00016679      -0.00017459      -0.00007770      -6.47123508
O       16.71254889      22.02556588       0.88949669       0.00022659      -0.00002799      -0.00009651      -6.16909274
O        3.44347034      13.31402323      12.22959281       0.00027716      -0.00006473      -0.00000724      -6.25225315
O        9.23830996       8.37515481      16.55952919       0.00021722       0.00038387      -0.00044078      -6.45492121
O        2.36675367      20.98811556      20.14618317      -0.00004766      -0.00025917       0.00028843      -6.31847764
O        7.48582988      14.20905022       5.60807176       0.00028225       0.00023094       0.00006258      -6.83535380
O       14.14052854       5.13669746       2.91263079      -0.00018819      -0.00021892      -0.00028009      -6.38528513
O       15.19705419       9.39953746      10.85456736       0.00026691      -0.00034187      -0.00025885      -6.57639862
O       17.79633166      -0.09666602       8.73801266      -0.00007955       0.00001905       0.00023924      -6.82158213
O        4.18322799       2.50909011       1.07912782       0.00023660       0.00005142       0.00033142      -6.76792769
O       17.02675272      10.91566241      21.66402322       0.00003445       0.00013812       0.00016715      -6.32077435
O       22.12204522      18.70251652      21.95102636       0.00033256       0.00023344      -0.00000490      -6.19863598
O       21.59406186      16.83795291      17.12072095       0.00017743      -0.00012777      -0.00008458      -6.60721927
O       21.45608507       0.21623769       0.01950308      -0.00029699      -0.00018703      -0.00027327      -6.31854872
O       10.10194519      16.28619970       0.39286007      -0.00011676       0.00033214      -0.00000159      -6.75055218
O        2.52997659       7.48744359       7.37023687      -0.00034259       0.00002084       0.00018507      -6.78628188
O       19.30744876      16.93709602      10.18713584      -0.00002284      -0.00015873      -0.00034591      -6.49723607
O       18.84211945       2.68129803       1.93107621       0.00016424       0.00024809      -0.00004293      -6.54962902
O        6.04349353       2.44173624      14.94344007       0.00032626       0.00020406       0.00004716      -6.85690188
O       18.04717464      19.28726444      10.41243452      -0.00077352       0.00012297       0.00041589      -6.46218255
O        8.75482948      21.51346148       5.86533521       0.00019922       0.00038104       0.00020250      -6.38634524
O        3.80310579      15.44068023      14.05421937       0.00002433      -0.00027724      -0.00022145      -6.22387812
O       21.56620699       8.27017215       2.89712177      -0.00014739       0.00005385       0.00004997      -6.58603740
O       22.56435947       0.47245505      15.69507148       0.00012488      -0.00011959       0.00013121      -6.38722273
O        4.01675258      17.02016183      16.54874094      -0.00039743      -0.00020117       0.00026823      -6.41574052
O        4.90301715       9.16746095       2.88643812      -0.00013632       0.00026610      -0.00008389      -6.87672461
O        0.53032218       5.82351782       0.25260532       0.00002509       0.00000227      -0.00027651      -6.69464934
O       14.37525449      10.61972876       7.69384912       0.00012087      -0.00023695      -0.00008315      -6.67516425
O       17.96491219      16.95552692      18.13272235       0.00023797      -0.00013098      -0.00014187      -6.95160654
O       14.13107237      13.14355772       7.10690708       0.00012872       0.00011306      -0.00027147      -6.40083233
O        1.08886069      21.13305358       4.07387032      -0.00029329      -0.00019935      -0.00011232      -6.45089349
O       15.35745459       7.22434239       2.10755348      -0.00008256      -0.00033139      -0.00028901      -6.46010731
O       19.80870272       5.02790908       1.58051568       0.00037830      -0.00017140      -0.00002365      -6.42227432
O       11.01330563      13.18963635      18.14867874      -0.00013640       0.00031163      -0.00024587      -6.83766817
O        0.55510810       7.49503351      19.84361765       0.00033362      -0.00014427       0.00013691      -6.91506876
O       16.17989680      -0.08343471      20.35829955      -0.00019635       0.00028473      -0.00013372      -6.64655239
O       12.83652868       0.94837723       1.91225667      -0.00006037      -0.00032824      -0.00021265      -6.68504502
O       20.14592800       5.31875687       6.96072073       0.00008231      -0.00042602      -0.00022339      -6.02855529
O        1.83038207       2.00019418      -0.23361870      -0.00005755      -0.00025681      -0.00026517      -6.60032343
O        7.39093729      18.89973336       6.97915412      -0.00040494       0.00002917      -0.00001968      -6.52929207
O       17.99019615       9.88333105      10.40652976       0.00018991      -0.00033082      -0.00004729      -5.64374327
O        9.32934195       7.71601932      13.89286138       0.00036701      -0.00003000       0.00008896      -6.55017167
O       17.27191459      20.03713862      16.68614898       0.00000311      -0.00039583       0.00022187      -6.73208224
O       12.65617077      20.75882943       7.16830607       0.00000140       0.00011997      -0.00009343      -6.50620162
O        6.83880593       7.34289721      17.15728593       0.00031642       0.00040252      -0.00001974      -6.14858870
O       15.88954198       1.47351284      10.03529926      -0.00033516      -0.00017446       0.00061444      -6.22953158
O       15.98845532      12.87715962       4.50002138      -0.00003951      -0.00014806       0.00004030      -6.91903743
O       13.22285129      18.75171519       5.40957765      -0.00042466      -0.00026036       0.00050488      -6.49665282
O        2.65321342       9.29095234       9.79360515      -0.00018079      -0.00019888       0.00024382      -6.45820301
O        6.05866845       4.72907501       0.55767249      -0.00021162       0.00004589       0.00015276      -6.74145367
O        2.28295705      20.71713649      17.30233131       0.00040219      -0.00019115       0.00000624      -6.79563168
O        4.26348417       7.17691846       5.30085515      -0.00028732       0.00032985      -0.00017863      -6.71404796
O        9.27354590       2.42105492      21.19056145       0.00008917       0.00016553       0.00000182      -6.30196406
O       -0.38447705      11.68359880       8.22085382      -0.00003249       0.00009294      -0.00004125      -6.53845695
O        0.45874440      17.13299661      10.38512704       0.00024297       0.00015351      -0.00020123      -6.60827533
O       13.86054677      16.35571042      12.06934826      -0.00032768       0.00010406      -0.00037722      -6.99391275
O       14.82679027      20.90354002       8.64349516      -0.00007589      -0.00000192       0.00012334      -6.78843621
O        7.91255986       0.86397717       9.07416894      -0.00010376       0.00017580       0.00006750      -6.72054637
O        0.78759804      20.18067218       8.62119035      -0.00001872       0.00013531       0.00036042      -6.75622268
O       16.10833276      16.59986607      10.14516159       0.00008518       0.00007331      -0.00044988      -6.25455533
O        7.36812370       4.15542456      17.63253307       0.00013131      -0.00001517       0.00016816      -6.70841858
O        6.38461905      16.95470061      17.32792336       0.00027359       0.00009575      -0.00002714      -6.58399888
O       16.57557048      11.54465392      12.72712726      -0.00003672       0.00019563      -0.00000839      -6.51315017
O        6.01501088      18.45122520       9.23441627      -0.00025344       0.00009818       0.00029056      -6.88003914
O       12.89501220       2.01386454       8.96562433       0.00008730      -0.00017512      -0.00042382      -6.67350934
O        5.56211373       2.19517493      12.00028453      -0.00019062      -0.00036049       0.00024010      -6.57189513
O       15.46641170      19.16313798      10.72072916      -0.00025025      -0.00007371      -0.00027036      -6.46492945
O       11.55259406      11.06207638       7.01545238       0.00010254      -0.00003483      -0.00034436      -6.81107246
O        0.97058852       2.88654468       9.06239879       0.00005572       0.00050347       0.00074529      -6.48065323
O       10.75621636       6.78964940      11.63149737       0.00034613       0.00017874       0.00042244      -6.59049397
O        7.37476317       5.41511824       5.26378050       0.00007374       0.00004797      -0.00003320      -6.47808725
O       14.53191261      18.05973859       3.22984257       0.00035123       0.00007671       0.00000464      -6.41125294
O       13.97804285      22.12232835       3.91892028       0.00023098      -0.00027572      -0.00018926      -6.57012601
O        5.98442407      13.90286818       9.27020927      -0.00009452      -0.00002699      -0.00002836      -6.33701786
O        0.86632716       2.81823077       3.50496668      -0.00020888       0.00003786      -0.00001942      -6.28524055
O        7.68059819      12.37988615      14.95458074      -0.00008815      -0.00037619      -0.00015370      -6.33191169
O        0.50760937       3.10745352      14.71333212       0.00020170      -0.00022193      -0.00006245      -6.40846343
O       21.34880429      19.14092664       5.57440759      -0.00012336      -0.00018779      -0.00001425      -6.78187611
O        9.78640974      16.22978181       5.22282311      -0.00025534      -0.00001285       0.00000949      -6.82395222
O        0.36471709       8.36152420      15.76028110      -0.00007590      -0.00020647      -0.00007795      -6.31898162
O        9.84554447       4.05659076       4.61637939       0.00019675       0.00012677       0.00010602      -6.85322171
O       17.12815533      11.85804927       7.30383088       0.00008650      -0.00005180      -0.00004182      -6.84694607
O        6.40150943      12.21312980       6.97394075       0.00015955      -0.00006239       0.00036842      -6.51118016
O        1.15967125      15.95956162      -0.05189913      -0.00039694       0.00020212       0.00017912      -6.42029236
O       10.93937494      18.67887370       7.18337609      -0.00004671      -0.00007601      -0.00008396      -6.68267139
O       22.48474784      14.45518781       9.23381945      -0.00015798      -0.00007502       0.00013849      -6.29111197
O       21.84067176      21.08043809      20.18138174       0.00012757       0.00007979       0.00014200      -6.59683538
O        8.22055437       6.24074083      10.08106429       0.00008084      -0.00012111      -0.00031951      -7.05050535
O       17.36981133      19.69237350       7.92186727      -0.00021452      -0.00026758      -0.00019779      -6.38565608
O       18.30973592       2.55520249      10.32683667      -0.00069886      -0.00017198      -0.00024371      -6.10690049
O       19.27987669      21.24958651       0.67007290      -0.00039264      -0.00000980       0.00052535      -6.65241769
O       14.03706077      20.28964373      21.66978914      -0.00013623      -0.00013320       0.00001354      -6.29386362
O        2.19218668      14.41826636      16.73927275       0.00035632      -0.00011655       0.00052583      -6.40064059