768
Lattice="21.93443126 0.0 0.0 0.0 21.93443126 0.0 0.0 0.0 21.93443126" Properties=species:S:1:pos:R:3:forces:R:3:energies:R:1 Time=25499999.99818446 energy=-7679.53651088099 virial="-107.13210035 4.38053684 40.42872164 4.38053684 -74.67010788 -5.88838467 40.42872164 -5.88838467 -90.42875509" stress="-0.0001177 0.00041506 0.00383066 0.00041506 0.00295811 -0.00055793 0.00383066 -0.00055793 0.00146496" pbc="T T T"
O        4.09878448      19.91865283       5.55813479      -0.00020333       0.00008535      -0.00056470      -6.30172474
O       10.21155366      20.09106333      19.51576312      -0.00017924       0.00008932       0.00033679      -6.53484086
O        5.54216320       5.91095030      12.73500023       0.00002240       0.00024560      -0.00027590      -6.64094485
O        2.50681357      15.64874549       3.79114752      -0.00012101      -0.00000891      -0.00024700      -6.79155294
O        3.25979976      14.14899207      12.42490249      -0.00037315       0.00002205      -0.00013227      -6.54366920
O       21.48545124      18.37518339       7.50186180      -0.00050019      -0.00016409      -0.00004567      -6.53985602
O        3.55803322       0.28926007       0.43614808      -0.00055748      -0.00000988      -0.00056159      -6.56138287
O        3.97212541      16.59509731      11.71304333       0.00017801      -0.00003835       0.00004281      -6.66583782
O       20.16319002       6.07619533       4.91869425       0.00038744       0.00007132      -0.00019721      -6.61809323
O        1.87622476      20.45204645      16.53810931      -0.00024486       0.00023600       0.00019942      -6.29151269
O        0.77971010      21.40384543      10.28049820      -0.00005528      -0.00009155      -0.00014490      -6.67146016
O        0.88007883      12.82649388      10.82512690       0.00010577      -0.00011684       0.00032182      -6.51601437
O       18.27406661      17.41038652       4.60966443       0.00008909      -0.00022702      -0.00013841      -6.62942020
O       15.80723166      17.26553102      10.83649440      -0.00014760      -0.00004423      -0.00008474      -6.71821200
O        4.53198909      17.68015704       4.32395362      -0.00028592       0.00012154       0.00024681      -6.59517449
O        8.29127909      10.94377506       6.34295458       0.00070538       0.00027667      -0.00028892      -6.84340606
O       16.88713553      15.93687290      18.22464075       0.00002316      -0.00002427      -0.00011389      -6.56566383
O       10.58746857      19.69583125       0.67551401       0.00011254      -0.00011585       0.00002920      -6.42532211
O       19.53016334       7.56049654      20.29055043      -0.00045063       0.00027274       0.00023503      -6.97146532
O        8.60967026       6.21265123      15.27085153       0.00046064      -0.00012908       0.00012864      -6.70532200
O        0.28778339       1.04275638      21.04230639       0.00020409       0.00026163       0.00000580      -6.49034815
O        9.73265235       8.16029612      19.26215383       0.00030707       0.00002672      -0.00008685      -6.16378109
O       20.91353910      16.78321487       4.18598538       0.00013569       0.00010860       0.00023306      -6.32192877
O       11.31251183      10.19299212       4.90214139       0.00043372      -0.00004980       0.00012838      -6.60808498
O       15.90420263      21.75175866       7.59295130      -0.00034037       0.00007289      -0.00029922      -6.31105414
O       15.12746975      19.67261696       9.40005648      -0.00031656      -0.00001633       0.00017426      -6.18571045
O        6.68695117       3.22314664      11.73495914      -0.00013299       0.00028168      -0.00014399      -6.68686108
O       21.47364365      11.31080217       3.28699446      -0.00011461       0.00006756      -0.00010425      -6.64119245
O       12.29038120      17.91348438      15.26798117      -0.00039189       0.00010802      -0.00002170      -6.54887508
O        6.46666121      13.88080652       0.71765842       0.00007364      -0.00016525       0.00001363      -6.59652361
O        5.82983426       3.39474914       2.21110570       0.00011971      -0.00004944      -0.00001141      -6.27828763
O       14.18185330      20.59833142      16.38505790      -0.00015641       0.00004538      -0.00033742      -6.68470412
O        7.97432678       6.08110393      20.87833406       0.00004894       0.00021148      -0.00012569      -6.40168591
O        9.25613134      10.82615877       9.36724542      -0.00009880      -0.00003553       0.00013401      -6.62460465
O       13.54609039      14.81078597      10.40002362      -0.00001594       0.00003288       0.00050718      -6.45118147
O        1.90256460      19.82333094      21.38967338       0.00016670       0.00029919       0.00021668      -6.81074983
O        4.91023072      18.94677851       7.76408532      -0.00017781       0.00012440       0.00003262      -6.50001557
O        0.18097771       6.13136460       1.66090001      -0.00013117       0.00019649      -0.00010602      -6.42550193
O        1.13743380       2.51348640      11.68954381      -0.00006036       0.00012443       0.00032019      -6.43815084
O        4.36117351       8.56288734      12.79896520      -0.00004341      -0.00006494       0.00013816      -6.66122800
O        6.24701651      20.44016634       4.33182465       0.00009647      -0.00017147       0.00009239      -6.34208959
O       11.04959931       7.49767986       7.90608686       0.00017101      -0.00002881      -0.00025644      -6.60089732
O       20.94457822      19.75013427      12.40336225      -0.00023567       0.00005773      -0.00042426      -6.69594394
O       13.09674951       3.82623591      18.37654974      -0.00000514      -0.00021657      -0.00013515      -6.44922609
O        1.29871279       8.85807053       2.45964104       0.00021047      -0.00009493      -0.00027216      -6.53315692
O        0.27044787      15.31966379       2.08492959       0.00033050      -0.00025389       0.00025180      -6.58490670
O       16.95575974       4.03261027       1.19145915       0.00040436       0.00030838      -0.00011365      -6.56832037
O       14.00299355      11.27847439      14.23701590       0.00021088      -0.00027239      -0.00012422      -6.60486351
O       18.24784004      20.87667138      21.09146167       0.00025509       0.00007340      -0.00014664      -6.37311274
O        0.41757595       5.47057970      18.32135089       0.00050191      -0.00037787       0.00010539      -6.71090130
O        5.83704641       7.94898634       7.48685376      -0.00004281      -0.00006638       0.00009960      -6.75107478
O       10.49896917       7.38239483      10.60880582      -0.00042066       0.00017636      -0.00025028      -6.66182959
O        8.94398083      18.62808156       8.98672481      -0.00010194      -0.00000351       0.00004298      -6.77246785
O       14.73689028      15.61380385       3.32687095       0.00034798       0.00033526       0.00024542      -6.58962743
O       17.57515744       5.17006373      14.86007131       0.00009675       0.00003878       0.00033470      -6.82724280
O       14.04290371      12.36756860      16.93373939      -0.00006788       0.00020853      -0.00014931      -6.36415135
O       14.76820255      13.55221583       1.21410393       0.00026177       0.00001027       0.00008288      -6.77926193
O        3.69239113       1.52519363       6.07276031      -0.00007743       0.00032883      -0.00013039      -6.46863245
O       10.09935917      15.98131712      15.79611681       0.00010194      -0.00014637       0.00004751      -6.43228909
O       16.78424215       7.42333236      17.84313588      -0.00000798      -0.00010895      -0.00017180      -6.50215057
O       18.22200483       2.11122285      14.25677528      -0.00006419      -0.00036944       0.00015287      -6.87825389
O        2.82963842      19.36050619       2.49679950       0.00014454      -0.00010911       0.00000538      -6.82902567
O        0.57906593       1.75781190       6.74624108       0.00007975       0.00005749      -0.00014390      -6.22015937
O       21.15448038      15.55390221       9.11169747       0.00012304       0.00018327      -0.00033488      -7.09556720
O        3.84021403       7.64084965       5.31667104       0.00007151      -0.00009572       0.00022225      -6.67830279
O        7.91371737      16.05170015       8.57163549      -0.00010225      -0.00037718       0.00007712      -6.24476757
O       14.59370293      16.88121335       8.61720001       0.00004347      -0.00003325       0.00032139      -6.67298446
O       16.28364235      10.33119448       6.36177404      -0.00022985      -0.00001194       0.00000341      -7.10256693
O        6.89796035       9.62387918      16.85695953       0.00011220      -0.00003289       0.00033517      -6.79473775
O        3.02472598       5.61654543      17.86919289       0.00013032      -0.00014100      -0.00025466      -6.68884693
O       12.40316705       0.62119580       5.22344588       0.00057820      -0.00015647      -0.00014013      -6.46975992
O        7.35395734       6.43771919       3.40665542       0.00025562       0.00000674      -0.00004989      -6.34066098
O        0.90139628      16.03574809       6.79291478       0.00023761      -0.00020970      -0.00000062      -6.40504809
O        1.18485099      19.17825269      18.60780190      -0.00027868       0.00004324      -0.00039825      -6.30010821
O       14.71372808       9.74871810      21.75254260       0.00001568      -0.00009164      -0.00038431      -6.46568302
O       20.37831350       1.57847682       2.98350995       0.00012184       0.00008607      -0.00044640      -6.21998370
O        2.32909695      15.84586584       9.42882816      -0.00022098       0.00007097      -0.00030275      -6.66205899
O       19.94947456      21.70226895       0.73856350      -0.00036730      -0.00042043      -0.00015202      -6.24467454
O        9.43413349       1.52607079       5.20130129       0.00008839       0.00022094      -0.00003741      -6.41644584
O       14.28453481       3.34247833      11.75015602       0.00004820      -0.00007990      -0.00028610      -6.35590474
O       19.52887508       9.71920257      17.04614316       0.00056755       0.00007334       0.00020359      -6.48745868
O        1.15692071       2.31777513       1.22058584      -0.00009815      -0.00024887      -0.00023256      -6.63445011
O       11.49720489      10.57949162       1.30840825      -0.00004383       0.00007617       0.00009116      -6.30946727
O       18.47493211       7.57876555      15.27861251      -0.00013315      -0.00021258      -0.00024155      -6.43016114
O        3.99266542      21.69714447       3.18221117      -0.00030333       0.00007024       0.00000477      -6.47991657
O        0.96640612      15.25158956      18.71690441      -0.00021656       0.00001180       0.00009499      -6.52778975
O        6.96910641       0.33660331       6.28284374      -0.00025132       0.00012448       0.00034729      -6.45193550
O       12.14101688      17.34622850       5.23462861       0.00012337       0.00031450      -0.00030785      -6.59123549
O       17.66206620       8.61064099       8.00018509      -0.00012149      -0.00008353      -0.00005661      -6.77137718
O       11.08904620      20.40122259       9.45206986       0.00000760       0.00007869       0.00019271      -6.51107891
O        8.72720462      21.51643009       3.88752458       0.00033218      -0.00012837      -0.00008944      -6.74913004
O        4.37578858      12.46217182       7.22903035       0.00001779       0.00000923      -0.00019802      -6.48966409
O       13.95212572       6.64497026       2.17597589       0.00002726       0.00059591       0.00015515      -6.47196658
O       10.84204100      14.14627287      11.27557789       0.00031359      -0.00011871      -0.00036453      -6.20123033
O       18.42740453      11.66824127      11.73250523       0.00013811      -0.00000564       0.00028175      -6.84243980
O        8.13944259      14.36410059      17.19348121       0.00009589       0.00005967       0.00024702      -6.37963814
O        9.50532798       9.82457572      21.60539245       0.00055307       0.00000734       0.00008076      -6.49435446
O       -0.22534883       7.79318007       8.11670743      -0.00019037      -0.00008531       0.00021357      -6.52851689
O        3.54070501      16.54091213       1.20464741      -0.00064029       0.00045671       0.00026075      -6.66723790
O       17.10858629      15.94783331       8.29053982      -0.00021676      -0.00025925       0.00007798      -6.85207547
O       17.64312472      13.60766347      18.92038366       0.00025020       0.00012996      -0.00029744      -6.44613070
O       20.80187538      18.09150155      21.75488554      -0.00019761      -0.00000442       0.00009340      -6.35453407
O       13.51561055      21.13030716      11.01359102      -0.00003908       0.00030840       0.00011077      -6.35751930
O       16.64882181       5.70323350      20.36070563      -0.00027383       0.00000508       0.00027665      -6.73584270
O       11.27255789      10.62514077      14.57617243       0.00055044      -0.00031245       0.00019750      -6.35987323
O       16.58555370      18.90723714       7.33130498      -0.00035166       0.00033921      -0.00030811      -6.07979130
O        7.05146474       6.82219784      17.26202621       0.00029091      -0.00025381       0.00067907      -6.50122286
O       18.79750691      14.06773013      13.92011879       0.00009368       0.00035409       0.00013816      -6.47452329
O       17.77489202      13.13336254       1.92088877      -0.00028316      -0.00002227       0.00025781      -6.57248437
O        6.10746196       8.05899628      21.63099335       0.00018523      -0.00065999      -0.00037399      -6.78297343
O        8.85942509      13.49279038       9.13910267      -0.00007543       0.00012017      -0.00006119      -6.37068663
O       21.44686271       8.91589490       5.49777443       0.00015537      -0.00016293       0.00029553      -6.48529398
O       18.74165504       6.77346705      10.18049850      -0.00005880      -0.00010690       0.00008266      -6.88006745
O        4.10846216       3.25566178       9.90563590      -0.00015471       0.00025818      -0.00004183      -6.39114261
O       17.43132918      20.54447666      18.10806886       0.00005685       0.00012657       0.00014668      -6.66314088
O       18.58691777      18.40002782      19.05733786      -0.00021538      -0.00002639       0.00001773      -6.63802996
O       12.45387087      15.26119430      20.33325892       0.00026034      -0.00011742       0.00006303      -6.32337718
O        3.81240012       9.70695104       8.88068630       0.00004305       0.00018809      -0.00005237      -6.58893852
O        6.69426035      11.25331322       0.52528332      -0.00066209       0.00055656      -0.00000860      -6.84453275
O       16.31955520       1.54963771      21.64946930      -0.00016073       0.00066555      -0.00061987      -6.44120922
O       10.06016190      21.51114265       7.04534729       0.00002894      -0.00036152      -0.00002288      -6.35319484
O       12.83907464      16.33053505       1.19698131      -0.00004153       0.00005843       0.00007956      -6.86835277
O       18.63992102       8.67581793       5.29562745      -0.00027460      -0.00016139      -0.00017199      -6.02438012
O        1.41756475       3.21174012      19.97380494      -0.00011346      -0.00020196       0.00006995      -6.77771375
O       20.21978227      15.73231649      21.85481831       0.00014611       0.00030616       0.00001375      -6.53205259
O        0.32340579       6.89607363      15.83928015      -0.00043351      -0.00017440       0.00021237      -6.64642744
O        5.17800748      18.62368389      17.24884446       0.00014812      -0.00031349       0.00028737      -6.69067515
O        5.31757430      20.13907190      10.44739401      -0.00052172      -0.00005050       0.00006033      -6.52986394
O       12.64532099      17.19915990      18.14658943      -0.00001602       0.00008832       0.00004106      -6.90215999
O        1.66609953      10.37890598      11.79937705      -0.00008468       0.00026907       0.00017037      -6.55096540
O       21.40963681      19.47272973       4.67206762      -0.00016858       0.00027007      -0.00027883      -6.64955588
O        6.62890694      20.13385001      15.16188311      -0.00030759      -0.00003442       0.00042913      -6.62719356
O       10.99197998      12.22571267       3.32040224       0.00001640       0.00045435       0.00015533      -6.57073858
O        0.91195431      10.22820388       9.02116040      -0.00037190       0.00002097       0.00033849      -6.43602562
O       10.10606275       2.39403410      18.57371609       0.00008906       0.00011641      -0.00045899      -6.44017807
O        8.95305981      11.32287313      17.91570597       0.00054201      -0.00015736      -0.00027275      -6.77647667
O        3.63664360       0.28556156      10.08085472       0.00003507       0.00021466       0.00011208      -6.42834844
O       12.90166346       8.04670022      18.75703765       0.00066197      -0.00003637      -0.00049798      -5.97967569
O       11.88408381      13.12998393      18.53734025      -0.00013710       0.00023100       0.00019470      -6.59734295
O       11.68828053      13.69894206       0.91559176       0.00008485      -0.00003042       0.00013090      -6.64505621
O        4.26687313      14.21701836       2.09114002      -0.00018418      -0.00024035      -0.00018456      -6.50645806
O       15.93412735      12.52367893       3.93758161      -0.00035846      -0.00029822       0.00038700      -6.44677407
O        8.24097784       2.80772393       3.11984602       0.00009650       0.00009432       0.00006505      -6.29993039
O       18.68102708      12.70587675      16.62933478      -0.00004275      -0.00019005      -0.00008700      -6.39752967
O       19.58022492      11.27450062      19.45832714      -0.00025018      -0.00030121       0.00013195      -6.32928470
O       21.82842436       4.01542720       3.66693834      -0.00006708      -0.00019586       0.00018140      -6.52120321
O        3.15884243      16.10860072      14.41841000       0.00003905      -0.00007083      -0.00038617      -6.49195065
O        9.60878522       2.65989158       0.76459925      -0.00009980       0.00042261       0.00018552      -6.34847257
O       16.24891229       5.81925546      12.28052741      -0.00000760       0.00034421       0.00009661      -6.63053537
O       14.12134197       1.47805177       2.47293324      -0.00009964       0.00011359       0.00009214      -6.52913356
O       21.03149277       7.64014768      13.56580801      -0.00001023      -0.00011574       0.00023832      -6.70381508
O       16.83640994      16.66027030      13.33048340      -0.00017809      -0.00023980      -0.00025743      -6.41643134
O       11.61498913      14.98047131       3.52716118      -0.00006782      -0.00057559      -0.00003216      -6.56957242
O       16.07755085      17.84538219       2.09945894       0.00024064       0.00016836       0.00026010      -6.45446580
O       10.71933144       0.37749298      21.69488539       0.00020363      -0.00029344      -0.00010309      -6.45913798
O       18.92053566      14.19094864       9.72465079      -0.00030910      -0.00013677       0.00017981      -6.66649201
O        6.43985595      10.49207689       8.15224839       0.00011350       0.00020184       0.00002890      -6.41746454
O       13.60433654      11.47265674       4.83336908       0.00004125       0.00008648       0.00002372      -6.94543796
O       14.55109561       1.10678336      17.92177158      -0.00009751       0.00027535      -0.00056540      -6.61910497
O        9.40256123      12.63605638       0.93335030      -0.00003371       0.00028569      -0.00022727      -6.62596518
O        4.36518113      20.29521704      12.99373974       0.00007528      -0.00009878       0.00002044      -6.57633754
O       22.40874103      18.11898122      10.22774229       0.00015782      -0.00009002       0.00037230      -6.38586518
O        3.34584424       7.51638753       2.87830719       0.00031805       0.00007697       0.00006148      -6.42824284
O       10.49888458       6.70113178      12.99312822      -0.00009311      -0.00019451      -0.00007305      -6.82633258
O       13.45638926      14.74235638       7.01531852      -0.00020688       0.00018007      -0.00029600      -6.66986902
O       18.08498085       3.05663829      20.45098832      -0.00059513       0.00047422       0.00012950      -6.26483332
O        1.81107601       8.74172278      14.03779175       0.00021935      -0.00015192       0.00013804      -6.75333416
O       13.47491275       2.89907355       8.45583337       0.00016831      -0.00006464       0.00037523      -6.21330658
O       19.38694541      11.34053514       5.61925857       0.00010004       0.00039785      -0.00038885      -6.79614172
O       15.11295730      15.70373332      21.26648954       0.00022859       0.00013017       0.00001259      -6.69054512
O        9.75982689      12.34015942      20.21084292       0.00019077       0.00019802      -0.00001126      -6.45848498
O       14.27674836       4.17840601       0.31659580       0.00013396      -0.00036000       0.00003976      -6.63498013
O        1.99440137      12.18529411      13.79577948      -0.00018888      -0.00014306      -0.00038820      -6.94559354
O       17.73925696       9.44362773      19.52097525       0.00023313      -0.00043340      -0.00041975      -6.56375054
O        4.60621250       8.26077171      18.88876194      -0.00004652      -0.00039387      -0.00021179      -6.70259154
O       20.99034458       1.41521856      14.87845718      -0.00003413       0.00011035      -0.00031965      -6.72040460
O       17.62739341      22.14764137       5.52088634      -0.00009754       0.00019062      -0.00016064      -6.14115372
O        6.71870406       4.34251533      14.81412964       0.00031648       0.00000896      -0.00030821      -6.39423130
O       10.99136906      19.90707736       4.81232442       0.00005392      -0.00012185      -0.00032700      -6.78640467
O       12.07616212       2.37123564      21.14605172       0.00071697      -0.00008447      -0.00014339      -6.43503007
O       14.12415833      18.14247735       3.93142204      -0.00038924      -0.00019256       0.00006656      -6.38440315
O        9.12304729      15.57179464       1.90264390      -0.00006644      -0.00014765       0.00020770      -6.40683582
O       11.31164205      10.15249906       7.91675532       0.00028937       0.00029916       0.00066188      -6.22788682
O        4.87858225      11.32932128      18.63139802       0.00008199      -0.00031412      -0.00018321      -6.85743058
O        9.78955491      17.78018911      12.77642707       0.00001131      -0.00025648       0.00024244      -6.45218992
O       12.26103852      13.14423661      13.90847281       0.00045270      -0.00002351       0.00026434      -6.72357876
O       15.91280928       8.32156181       2.71377292      -0.00025867       0.00031937       0.00010800      -6.70039573
O       18.49393393       4.02438166       9.36679370       0.00014761       0.00010764      -0.00001530      -6.69122344
O       13.67372227      17.43447191      12.57813252      -0.00044916       0.00018679       0.00029492      -6.69792667
O       15.38129784       8.12378398      19.78451376       0.00011992      -0.00001021       0.00043156      -6.58692154
O       13.22750008       6.13809451      13.07624508      -0.00004041      -0.00003487      -0.00034653      -6.55505472
O       14.68314308      14.82041393      14.00536417       0.00021688       0.00023044      -0.00022170      -6.81177103
O        0.58992988       3.64978603      16.53820680      -0.00008503       0.00015894       0.00030780      -6.73141229
O       18.58788761       4.31919601      17.57371704       0.00005317       0.00003577       0.00003153      -6.52366862
O       15.61493300      18.57335800      20.98407569       0.00012732      -0.00005422      -0.00011137      -6.60906354
O        7.18672299      13.56566395       6.94551411       0.00015761      -0.00028244       0.00004994      -6.46527060
O       20.62876519      20.54358427      17.94149413       0.00022467      -0.00025986      -0.00004381      -6.73123482
O        2.91625028       3.45601338       7.45544164      -0.00018367      -0.00020896       0.00068803      -6.50413826
O        3.74028740       1.10104809      12.55623445      -0.00016132       0.00030568       0.00052316      -6.67656598
O        8.52151109       4.93068385      18.64267004       0.00021257      -0.00037580      -0.00018233      -6.22923477
O       16.96091639       1.08742430      19.19641153      -0.00021813       0.00015172      -0.00014478      -5.93745279
O       21.01782437       4.80232912      21.08489655       0.00033616      -0.00021535      -0.00023886      -6.78954627
O        2.42546859       4.19764930       4.78424132       0.00025069      -0.00011359       0.00052934      -6.18376175
O       15.02802022       9.18083145       9.08352837      -0.00020513       0.00009160       0.00020565      -6.42579742
O        5.75986920      21.00562976      20.58381156      -0.00013928      -0.00027270       0.00044764      -6.80392685
O       21.10900187      12.77737590      14.68199518       0.00020909      -0.00014274       0.00000606      -6.41237297
O       14.56946836      20.66722930       5.65425181      -0.00006212       0.00012556       0.00017928      -6.25591830
O        3.68349327      20.38315929      18.60098680      -0.00013552       0.00013323      -0.00006773      -6.63504646
O        8.50895175      10.37080906      14.80039470       0.00039446       0.00038193      -0.00028237      -6.62234189
O        4.90265494      10.07809599       6.01340093       0.00008472      -0.00029335      -0.00047239      -6.39544372
O        7.55984182      19.28101099       6.18734217      -0.00002436      -0.00026581      -0.00004646      -6.12972621
O        1.83521604      13.88015537      16.45252419       0.00006367      -0.00023224       0.00010150      -6.45465084
O        5.75817149       1.27402304      15.43247709      -0.00023892      -0.00019557       0.00017364      -6.39257154
O        1.71596866      17.19155758      21.07546494       0.00024607       0.00022849       0.00025253      -6.82830077
O        4.47011356      10.13606933      15.21586089       0.00008069      -0.00007588       0.00017837      -6.62352342
O        8.02283672       2.94862710      20.72721591       0.00002222       0.00016462       0.00031836      -6.47418387
O       15.50478169       0.81103523      12.75760901       0.00011371      -0.00008151      -0.00037106      -6.95106967
O        4.28695997      19.17860224       0.01319344      -0.00050535      -0.00014701       0.00017769      -6.57585389
O       20.34651384      15.15768654      16.27214561       0.00003176       0.00000651       0.00043067      -6.70811011
O       12.41481241       1.55279680      12.68812707       0.00015779      -0.00009235       0.00031138      -6.68493080
O       21.14684997      10.89898154      12.60991778       0.00024019      -0.00016961       0.00004608      -6.82928998
O        6.95560662      12.72130053      19.68463436       0.00019481       0.00013855      -0.00023363      -6.76875749
O        6.38775188      12.69949642       9.41305365       0.00024831      -0.00036865       0.00010522      -6.46005742
O       18.81269331      12.88162751      21.23191579       0.00007857       0.00000103      -0.00021660      -6.21544430
O        9.84991733      18.09174630      17.79863163       0.00026158       0.00033872       0.00013207      -6.31366981
O        3.03268917       6.84847510       8.22044146       0.00036940       0.00030487      -0.00003691      -6.75545372
O        5.79076698       2.29419829       8.09275608      -0.00038871       0.00015821       0.00040080      -6.38191021
O       16.91475819      11.22479363      17.92750233       0.00008860       0.00067568      -0.00011843      -6.32588893
O       13.57417901      19.15892574       1.16745920       0.00003127      -0.00039302       0.00061326      -6.41160470
O        4.17852226      11.02952371      11.09646771      -0.00010699      -0.00028864      -0.00009276      -6.71480137
O        0.36825377      21.21629273       2.11898130      -0.00015668      -0.00013854      -0.00036145      -6.51372554
O        6.65381117       8.49787862      14.34199964       0.00015989      -0.00005497      -0.00005981      -6.33997806
O       19.47866166       6.60371401       7.26754211      -0.00013461       0.00028525      -0.00066026      -6.63247181
O       11.71415157      13.09924125       9.01074887      -0.00014864       0.00016203      -0.00045614      -6.76882149
O        9.30595860      14.30188086      13.61302010       0.00045469       0.00000287      -0.00010785      -6.60518210
O       10.36011906       6.98814119      -0.24724981      -0.00019397       0.00017466       0.00019788      -6.27640905
O        8.70731306      16.47891077       4.43024779      -0.00031954      -0.00024606       0.00042220      -6.85125765
O       20.05827632       8.03893623       3.08948794       0.00001356       0.00000727      -0.00018552      -6.20759336
O       18.84924933      17.64009793       8.68827384      -0.00042559       0.00002921       0.00010643      -6.87146179
O       19.32286667       4.31856338       2.81341938       0.00016933      -0.00012548       0.00002688      -6.25704349
O       15.28790003      19.72816162      13.11586317       0.00002770      -0.00010777      -0.00006413      -6.96620741
O       13.19365992      12.45441215      21.16851910       0.00018829       0.00003631       0.00031647      -6.37904302