768
Lattice="22.09125276 0.0 0.0 0.0 22.09125276 0.0 0.0 0.0 22.09125276" Properties=species:S:1:pos:R:3:forces:R:3:energies:R:1 Time=23499999.99516302 energy=-7671.033949868724 virial="-180.20680794 -34.76727078 -43.10754914 -34.76727078 -186.36715248 -38.46012388 -43.10754914 -38.46012388 -181.50479018" stress="-0.00566385 -0.00322388 -0.00399725 -0.00322388 -0.00623509 -0.00356631 -0.00399725 -0.00356631 -0.00578421" pbc="T T T"
O       16.21048401       0.96838724      18.59747314      -0.00005815       0.00022756       0.00013089      -6.18790801
O        5.70062082      11.59363729      17.68801189      -0.00006046       0.00024765       0.00007433      -6.61795562
O       18.19541445       7.31301785      16.06708271       0.00002401      -0.00023458       0.00008208      -6.59546736
O        4.82798026       6.35947841      13.01619246       0.00015710      -0.00007685       0.00001790      -6.62911366
O       20.67444760      20.02027628      10.58562925       0.00011440       0.00044450       0.00038960      -6.50404951
O        9.07885051      18.47963709       8.50190078      -0.00015492       0.00003258      -0.00024108      -6.70172643
O       12.77243609       5.39593058      15.59031039       0.00017463       0.00028400      -0.00009368      -6.53753589
O        7.77677748       0.69749201      19.90875863       0.00009632      -0.00039263      -0.00032136      -6.61986772
O        9.50629216      13.79257463       6.54254563       0.00013858       0.00000705      -0.00003278      -6.62904805
O       10.24467863      17.91474450      21.40932580       0.00015725      -0.00054687       0.00003249      -6.80025938
O       21.09081352      11.63431654      21.10400646      -0.00018818       0.00022830      -0.00019389      -6.62427668
O        9.21428831       7.07210228       1.75123597      -0.00020228      -0.00017057       0.00044804      -6.57555480
O       18.51017461       0.35571676       7.91563650       0.00051533      -0.00001404       0.00016225      -6.60516147
O        9.51295280       1.88789426      21.59637529      -0.00017064      -0.00014014       0.00005441      -6.27821987
O       14.17778500       8.47921625      13.21570708      -0.00024378      -0.00015062      -0.00021027      -6.30418688
O        1.36745435       3.81513166      13.46703800      -0.00036103       0.00043669       0.00044692      -6.68299225
O       14.10562445       3.78558918       1.39237753      -0.00024558       0.00009686       0.00035978      -7.01224270
O        1.77020863       0.68874732       6.77956671       0.00012711      -0.00039811       0.00022887      -6.38590703
O       10.94678899      18.01473246      17.14582293       0.00029282      -0.00009875       0.00023434      -6.51539233
O       18.29931480      13.07437283       8.96842472       0.00046851      -0.00035655      -0.00002984      -6.50044238
O       12.78055777      18.23719779       3.26459311      -0.00022107       0.00016995       0.00019436      -6.40950112
O       21.93612719       0.05031893      12.83148997       0.00008785       0.00018830       0.00014354      -6.65748433
O       18.82135010      13.23010618       2.97926858       0.00020667       0.00014374       0.00004401      -6.48438949
O        4.96440081       5.41054782      20.47652649      -0.00001233       0.00038568       0.00008726      -6.16170810
O        1.87439424      15.10633035      11.30549072       0.00000985       0.00018912      -0.00014229      -6.66783893
O        8.78569225      15.28689076       9.03984848       0.00038001       0.00002482      -0.00013467      -6.65016490
O        5.21382379       2.34604015      13.18003144      -0.00043092       0.00009343      -0.00012194      -6.82878755
O       13.42421146      13.00613108      20.80174056      -0.00001229       0.00002699      -0.00043722      -6.19203635
O        6.59610607       8.77578903      21.54287541      -0.00014702      -0.00006024       0.00030484      -6.21647089
O       20.24882857      22.78762501       0.86710921      -0.00002227       0.00031409       0.00053437      -6.68083311
O       16.88807561      12.42506779      13.83504112      -0.00029218      -0.00016520       0.00037488      -6.42121679
O        9.03267254       4.07850323       8.21428129       0.00014964       0.00008857      -0.00028359      -6.96873779
O       17.67722181      15.53967668       6.73738090       0.00049143      -0.00016193       0.00011320      -6.76374779
O       16.45641631      19.01546044       0.72437049      -0.00004015      -0.00025048      -0.00007884      -6.59870688
O       14.07062901      13.60209940      14.45031878      -0.00006836       0.00012295      -0.00016843      -7.00251275
O       18.22447427      13.90038749       0.54636076      -0.00013876       0.00013974      -0.00022070      -6.41392394
O       13.00923554       4.70409446      18.28420048       0.00027235       0.00000774       0.00032067      -6.34773713
O        7.65928759       6.59514968      15.47106102      -0.00061836       0.00034067      -0.00048703      -6.98515356
O       15.28076975       1.85277636      21.47833852       0.00048898      -0.00005025       0.00005184      -6.55806728
O        6.86666500      11.84324489       0.46457403      -0.00024698      -0.00013250       0.00027280      -6.76191490
O       17.95250062       2.81910555      17.91779972      -0.00028072      -0.00027690      -0.00018557      -6.09385773
O        8.61467310       6.76091251       4.15842101       0.00003288      -0.00029790      -0.00045240      -6.26672424
O        3.21753549      13.80077357       9.03503811      -0.00031489       0.00001803       0.00006806      -6.45100358
O       20.86737548       3.33108752       0.04928807      -0.00002019      -0.00017109      -0.00086402      -6.52720256
O       10.18585010       1.30461406      15.38678452      -0.00000404      -0.00004963      -0.00030223      -6.61663736
O       17.20826977       3.61972461       1.00874263       0.00017160       0.00009608       0.00012383      -6.44865266
O        0.54329225       7.94090405      19.99060990      -0.00031193      -0.00008269      -0.00006887      -6.59625454
O        9.95958347      14.62984387       0.64091093       0.00001387       0.00012161       0.00001478      -6.65467719
O        9.38312453       7.12673009       7.36785964      -0.00049963      -0.00021081      -0.00017546      -6.48271268
O       15.47845289       0.59621224       8.10893894      -0.00023521      -0.00002448      -0.00039127      -6.56939104
O       12.70829098       0.58869927       6.73426762      -0.00002936       0.00017107      -0.00039041      -6.82244606
O        5.16668734      13.97600032       2.88690962       0.00003371       0.00023222      -0.00017003      -6.71275231
O        9.78337799      15.81043197      15.08080280       0.00005113      -0.00000231      -0.00034821      -6.79613811
O       20.71166942      13.61010033       0.75038683      -0.00054011      -0.00007655      -0.00009726      -6.44980677
O        7.82748518       9.23870279       9.43746362       0.00018750      -0.00015093      -0.00013488      -6.42051429
O        5.70618849      14.28849220      19.69706785       0.00032705       0.00025992       0.00018134      -6.79919106
O        0.14844028       0.99052792       2.93994968      -0.00003693       0.00017163      -0.00005112      -6.49721433
O       19.35069245       3.23894268       4.92298815       0.00013093       0.00002574      -0.00038662      -6.64187997
O        5.35054684       5.78386375      17.62649937       0.00021817      -0.00035282       0.00026636      -6.59347055
O       12.83038231       0.02568220      15.59188708       0.00008974       0.00042044       0.00016504      -6.68379753
O       19.78941332      14.36515937      11.15457423      -0.00048389       0.00014274      -0.00010602      -6.22618328
O       13.20726479      15.31857014       3.68370127       0.00040419       0.00017104       0.00008703      -6.64285418
O        3.89524261       7.74152157       2.34419393       0.00045508      -0.00029342       0.00025384      -6.44803220
O       12.43759727      20.06330336       6.56195968       0.00005532      -0.00019524       0.00013068      -6.77390780
O       15.54481535      15.63885478       4.86663992      -0.00017931       0.00004469      -0.00021653      -6.66028060
O        7.10835576      20.67178232       9.67686101      -0.00001151      -0.00012534      -0.00008792      -6.79712476
O        7.94810644      13.63073263      17.91714974       0.00001068       0.00002280      -0.00021166      -6.61742591
O        3.53864195      19.87808946      21.18844352      -0.00007386      -0.00016320       0.00000284      -6.52017719
O       14.82844420      12.60444562      16.68951591      -0.00016245      -0.00014278       0.00014097      -6.46030854
O       10.04142179       1.05170019       5.65749613      -0.00013240      -0.00009628      -0.00054111      -6.70183715
O       16.07455054      22.18388340      16.08237334       0.00008689      -0.00028041       0.00026355      -6.69214572
O       14.28490333      11.33329333      12.84078733       0.00030368       0.00004819      -0.00012285      -6.85079451
O       21.56594554       5.06638234       8.79440558       0.00034157       0.00001982       0.00017644      -6.69593229
O       10.86026869      11.39271348      13.86203388       0.00009766       0.00020634      -0.00024657      -6.52757932
O       13.90690479       9.88219827       4.38391370       0.00025504       0.00022829       0.00019118      -6.49931230
O       18.53113956       9.22728829       8.96627906       0.00017718      -0.00019822       0.00042672      -6.61128451
O       22.41632232       1.47792947      21.21242161      -0.00004702       0.00025644       0.00008984      -6.36135415
O       12.17392111       4.11902784      11.06360781      -0.00024062      -0.00030375      -0.00029534      -6.48682657
O       16.00970622       3.86694482      19.85971903      -0.00017676      -0.00018886      -0.00007801      -5.88314988
O        5.18455631      13.90718966      16.65343221      -0.00009253       0.00002900      -0.00011445      -6.76433841
O       10.81943587       6.08765009       9.84083282       0.00021694       0.00019641      -0.00013677      -6.35481700
O       18.07928079      12.94869915       5.76157973       0.00011475      -0.00000685      -0.00003947      -6.78567611
O       11.28454071      15.38484463      19.72193846      -0.00003052      -0.00040218       0.00001825      -6.21599178
O        0.77805299      15.65347772      18.01403924       0.00014315      -0.00002975      -0.00008346      -6.51912751
O        7.61152531       0.91185208      12.75708700      -0.00033017      -0.00003139      -0.00015736      -6.72513201
O        8.66302539      16.20878507      20.61300290      -0.00006765       0.00016319      -0.00015446      -6.55381732
O       19.32482633      16.09709058      20.26582193      -0.00010964      -0.00066163      -0.00021697      -6.36971607
O        8.06329125      13.29107762      20.57100643       0.00001638       0.00007255       0.00009591      -6.49365920
O       15.29424373       9.76635513      17.83656763       0.00003549      -0.00006517       0.00015492      -6.55461571
O       11.37644857      20.71302903      17.58949012      -0.00009832       0.00022650       0.00030300      -6.50149887
O        8.74245179       3.03899231      13.50748804      -0.00011119       0.00010161       0.00012102      -6.51725387
O        5.39795986      10.50411345       8.58579667       0.00000089       0.00011492      -0.00020495      -6.46962932
O       17.50302794       8.33782946      18.53726743       0.00035736      -0.00008145      -0.00022076      -6.74614752
O        3.72284930       3.97633132      18.85104449       0.00010245      -0.00034138       0.00015111      -6.42415000
O       21.64191876       9.59059442       3.01439304      -0.00027144      -0.00032860      -0.00003908      -6.96955076
O       21.28218384       8.93381456      21.98822632       0.00043752      -0.00004646       0.00015622      -6.65828458
O       17.26487500      16.74007003      16.56226237      -0.00012352      -0.00000345       0.00009474      -6.16728452
O       15.10872761      13.35147809       6.68485580       0.00024043       0.00012626      -0.00009442      -6.58543247
O       13.12654921      18.85093933      11.63494750       0.00025379       0.00000930       0.00027030      -6.51064160
O        2.97181529       6.73720408      18.79329057      -0.00029840       0.00011247      -0.00009574      -6.72182702
O       14.92291357      16.69772354       1.86443415       0.00012591       0.00005801      -0.00011563      -6.80753854
O       19.47310066      12.11109115      13.12331732      -0.00012049      -0.00053639      -0.00006359      -6.46920336
O       12.72595698      14.84483692       0.99894506       0.00037901       0.00005756       0.00055625      -6.56003881
O       20.54438166      11.56171113      15.31758961      -0.00003597       0.00006361      -0.00030161      -6.37720027
O        4.12469070      16.50085512       5.25575848      -0.00011364      -0.00030913       0.00069107      -6.61177347
O       10.82836428       1.54207001      12.89018217       0.00004517      -0.00046953      -0.00006848      -6.50077573
O        1.36299037       6.77028823      13.83095633       0.00025120      -0.00021906       0.00014380      -6.72274140
O       18.35098496      13.04940448      16.07930768       0.00015190       0.00006616      -0.00003953      -6.47551447
O        0.70128247      22.01619643      17.55405028      -0.00018937       0.00001475      -0.00015446      -6.65840973
O       -0.00178218       2.12654913       5.24857614      -0.00023634       0.00015298      -0.00004489      -6.39867754
O       14.07252782      16.46988504      12.08356080       0.00029237      -0.00003440       0.00007362      -6.48384519
O        0.62450122       9.25960306      13.34418674      -0.00057069      -0.00038387       0.00013280      -6.23645322
O       10.90785038      20.79486580      12.64836296      -0.00016514      -0.00016442      -0.00034798      -6.41330849
O       19.20827383       9.15837684       6.29412281      -0.00072506      -0.00010016      -0.00038910      -6.37380611
O        8.72137927       7.87514372      18.03401490      -0.00031351      -0.00001247       0.00015219      -6.63211701
O       18.44174253       5.52884336      20.82174313       0.00013511       0.00025772      -0.00021214      -6.70445313
O        3.67742896       9.44692799      18.16550514       0.00000632      -0.00030240      -0.00006379      -6.67848730
O        1.19432168       3.63187807       1.92878042       0.00004003       0.00001910      -0.00016708      -6.37065465
O       19.78201310      22.38818357      10.77504447      -0.00000841       0.00037206      -0.00029872      -6.32267903
O       14.05600723      16.15892001      20.69240768       0.00028070      -0.00015419      -0.00002021      -6.60957372
O       15.27422204       7.44291331       4.51232438      -0.00019552       0.00039038       0.00016003      -6.62462021
O       20.40283726       6.19503526      18.24446567       0.00012895      -0.00020009      -0.00017972      -6.36870733
O        4.54268358      16.02283586       1.21049382      -0.00002807      -0.00021028      -0.00006218      -6.36158762
O        1.62668757      10.04446180      20.80878602      -0.00037327      -0.00022381      -0.00021898      -6.29517958
O       13.93278529       1.99013118      17.12822400      -0.00041810       0.00036315       0.00049936      -5.88387770
O       16.03088004      10.19304196      10.03550913       0.00054026      -0.00031138       0.00001542      -6.72240678
O       17.96016281      20.48229444       5.51045859      -0.00021895       0.00035070       0.00009345      -6.58225001
O       21.67075874      18.59820548      15.89103741       0.00008963      -0.00010488       0.00002947      -6.53450223
O        1.28439731      20.27718296      15.09880298      -0.00020603      -0.00018794       0.00028825      -6.52838718
O        2.34781347       3.33192018      20.95046348      -0.00009428       0.00029936       0.00047831      -6.42027740
O        1.82735424      12.65697597      20.43859588       0.00027818      -0.00007109       0.00013588      -6.31492959
O       18.73010122      13.23893642      20.20853544       0.00019554      -0.00016230       0.00028825      -6.65137701
O        0.29801703       6.13276290      16.16040855      -0.00001460      -0.00011147       0.00003921      -6.79065730
O        2.69390842      13.16551019       3.37110253      -0.00020088       0.00001886       0.00034749      -6.72026609
O        5.52839547      17.48380397      15.40557417      -0.00020237       0.00042413      -0.00014722      -6.54618084
O        1.02971146      17.44017367      20.03697222       0.00005249       0.00004153      -0.00005614      -6.39237007
O       11.35305691       8.50158117      13.90479490      -0.00001510      -0.00031577      -0.00041129      -7.01269263
O        4.68582097       7.54503852      10.46494734      -0.00010748       0.00032080      -0.00017481      -6.73680563
O        7.35062358       6.03912968      12.91057139      -0.00003495      -0.00021765       0.00014888      -6.79576836
O       15.32719542      21.41971710      21.17010093      -0.00006630      -0.00036926       0.00034111      -6.58509841
O       11.75581088      13.83623840      12.32723873       0.00009899       0.00023025      -0.00008962      -6.81937514
O       14.28708354      17.71343910      18.21586251      -0.00014584       0.00032274      -0.00004258      -6.62578232
O       11.42577831       5.51293575       7.22203037      -0.00006109       0.00024883       0.00009382      -6.41962152
O        2.49050107       4.77913947      10.04850623       0.00005090       0.00049580       0.00005585      -6.88154839
O        9.79410109      19.99793550       6.08876843      -0.00011958      -0.00014359      -0.00021673      -6.66484944
O       12.67959427       3.11893952      13.77696920       0.00000058       0.00029810      -0.00000620      -6.44662979
O        2.32726924       1.05054482       0.91964694       0.00001123       0.00015377       0.00004956      -6.74480726
O       13.08730561      16.06421661      14.50419486       0.00015950      -0.00020606      -0.00030339      -6.59608890
O       18.46974835       7.80725586       0.93079403       0.00053854      -0.00028599       0.00014776      -6.74652997
O        2.20434771       8.23064186      16.31006533       0.00016163       0.00001727       0.00023306      -6.58760342
O        5.10219278      20.06117288      15.37690196       0.00009375      -0.00013015      -0.00058117      -6.67206141
O        7.69216989      16.95380254       1.60552295      -0.00012065       0.00005881      -0.00028344      -6.77207328
O       11.46279331       9.54076093       3.25604392       0.00004155       0.00011825       0.00002588      -6.37034003
O       13.57992364       7.91927331       2.23906311       0.00018050       0.00027203       0.00035090      -6.40358805
O       10.51489262      14.98855819       4.44785884       0.00041569       0.00007434       0.00013607      -6.84043550
O       16.32713834      19.53275869       7.64178369      -0.00029549       0.00014081       0.00019714      -6.66009124
O        9.08010837      12.92858667      15.51405961      -0.00006390       0.00020549      -0.00001927      -6.36524051
O        6.48256786      11.88972744      14.48068244      -0.00004065       0.00006013      -0.00000909      -6.75923108
O       15.37388870      21.95183686      10.87936812      -0.00008348       0.00031564       0.00050180      -6.46266118
O       11.70934459       5.72251898       1.32754085      -0.00000812       0.00035333       0.00040719      -6.45112723
O       17.47661272      22.12911780       0.45270239       0.00010869      -0.00023352       0.00006209      -6.71785886
O       16.02369715      14.14998811      19.68939731       0.00050973       0.00034122       0.00040291      -6.43466648
O        4.18775633       9.43968568      20.70244963       0.00001245       0.00047008      -0.00000938      -6.46360055
O        1.92905333      21.02157886       3.55135539       0.00026465      -0.00006521      -0.00015272      -6.62104082
O       11.36173968      18.01978890      13.83846136       0.00001005       0.00030529       0.00011152      -6.87844126
O        1.71284676       7.41629279      10.83996994       0.00001067       0.00043731       0.00032669      -6.43459061
O       20.99241899       8.74084163      11.27336816      -0.00012167       0.00017081      -0.00005741      -6.59813569
O        2.95573222      18.27499051      14.27346372      -0.00021052       0.00000212      -0.00010771      -6.77915978
O       11.08183649      16.78205463      10.33436175      -0.00011956       0.00004896      -0.00002957      -6.42778708
O        1.36135221      12.56579732      14.26277380      -0.00003397      -0.00000556      -0.00019419      -6.65081259
O        5.59010275       2.18270723      19.15989068       0.00006650      -0.00025263       0.00024446      -6.52467144
O       18.04077128      17.33012964      12.42522356       0.00007595      -0.00010728       0.00002074      -6.29078280
O        6.00316639      19.99859983       4.05233088       0.00027192       0.00020574      -0.00013850      -6.66507823
O       17.39087655       1.48933527      10.91864594      -0.00055577      -0.00058555      -0.00018612      -6.63768439
O       19.95883958      21.60470311       3.52825359      -0.00033032       0.00051536      -0.00004163      -6.74633911
O        0.68741696      16.55486384      14.81782312       0.00010925      -0.00037009       0.00024651      -6.31131186
O        1.39634139       7.50587507       7.96944131       0.00014493       0.00008498       0.00008424      -6.84234451
O        5.84687353       7.33997175       6.97151320      -0.00006241      -0.00004871       0.00032015      -6.83046084
O        5.32564806      15.28751870      10.33114716      -0.00067772       0.00001759      -0.00008167      -6.95943245
O       13.37699134       6.71123302       6.18259259      -0.00019072      -0.00013324      -0.00045730      -6.26026675
O       16.73177932      10.47886866       4.81365138       0.00005820       0.00030353       0.00026854      -6.43363879
O       14.94905206      15.71210086      16.77996019      -0.00034288      -0.00014454      -0.00053395      -6.52859009
O       20.31608053      11.98819296      18.15778655      -0.00004445       0.00021298      -0.00031609      -6.25585913
O        8.53457190       9.59689560       2.57666106      -0.00008162       0.00027607      -0.00010082      -6.23528791
O        9.05387328       3.70749148      10.83414473      -0.00035715       0.00003401       0.00007663      -6.76669470
O        4.49331416      18.66213968       2.23459010      -0.00004941      -0.00011035      -0.00045016      -6.05579231
O       13.34592686       0.42749495      12.92523708      -0.00022099       0.00025944       0.00004870      -6.31118366
O       21.45112734       4.55054607       3.45860062       0.00023228       0.00030755      -0.00003631      -6.87785161
O       15.59387869       7.30113007      16.17860453      -0.00012062      -0.00046129      -0.00005455      -6.31613018
O       16.87754994       7.36542406      13.48734404       0.00022058      -0.00005974       0.00006709      -6.40799025
O        7.37219934       3.64342480      20.49668501       0.00022422       0.00014983       0.00010721      -6.76639998
O       20.42898501       3.73507596      16.44530726      -0.00016476      -0.00007010      -0.00013668      -6.31460449
O        3.10155098      10.63486443      14.98304259       0.00011716       0.00007519       0.00010651      -6.43712643
O        7.97409078       2.31439530      17.40421031       0.00062323      -0.00011266       0.00007815      -6.46193421
O       15.08894815       9.84085064       0.60023168      -0.00021924       0.00010682       0.00008336      -6.22728127
O        7.62812600       5.42629758      18.56587520      -0.00032380      -0.00014912       0.00015837      -6.65625573
O        6.04599767      17.05460132       3.56606421      -0.00030352       0.00023005      -0.00024928      -6.41393613
O       12.61886408      10.50728814      -0.12826009      -0.00012024      -0.00004207      -0.00039334      -6.80510040
O        6.76740921       3.90991751      14.98625599      -0.00017431       0.00038961      -0.00025478      -6.54425204
O        5.56089948       4.34752339      10.61643288       0.00015136       0.00031306      -0.00019447      -7.01362704
O        5.50297493      18.59756344      12.68318921      -0.00058593       0.00007615      -0.00035625      -6.76376265
O       18.68748238      14.88452598      17.85330422      -0.00010162      -0.00034767      -0.00028438      -6.61129963
O       13.74508469       7.36080929      20.97427954       0.00017579       0.00013876       0.00016372      -6.62218063
O       10.75209668       1.09150847      18.56048478       0.00006957       0.00000492      -0.00072190      -6.71237444
O       11.23765861       6.49028921      18.79575213      -0.00041669       0.00000199       0.00020782      -6.53924998
O       -0.10571458      14.24139486      20.04283726      -0.00035307       0.00048228       0.00010289      -6.77281114
O        6.00143874       2.14511053       4.46449006       0.00008527      -0.00039916       0.00015743      -6.68975886
O       14.00207592      20.19718744      13.73052760       0.00019541      -0.00009262       0.00029239      -6.39255397
O       16.78590597      11.44231408       1.70800330      -0.00044150      -0.00014093       0.00001717      -6.41096095
O       16.86728876      16.56804023      19.42944048      -0.00067552      -0.00012219       0.00039643      -6.69612127
O       16.80861724       1.16888978       5.95336957       0.00021372       0.00011584       0.00032799      -6.72378226
O       20.85470732       8.43089712      16.46499963      -0.00024853      -0.00009686      -0.00032469      -6.63178609
O        5.85327373       9.49861422       1.79069717       0.00030946      -0.00012190       0.00022426      -6.64502898
O        1.45167882      18.03525991       3.13659860       0.00007466       0.00016809      -0.00025811      -6.30369049
O       16.43284345      17.13937691      10.27509584      -0.00022516       0.00014257      -0.00025885      -6.35955433
O       10.15161648      11.55075183       4.88041676       0.00001732      -0.00043696      -0.00025112      -6.50246863
O        4.92730213       0.19863817       8.25748388       0.00014883       0.00049063       0.00012307      -6.62584135
O       12.49067883      21.50953217      10.51378313      -0.00033511       0.00057589       0.00003839      -6.18404120
O        9.18448462      15.88703297      18.03674347      -0.00024816      -0.00005128      -0.00001209      -6.49502633
O        0.54690477       9.95900095       9.45758644       0.00049844       0.00008991      -0.00004706      -6.38194883
O        5.82771111       6.68699346       1.16584548      -0.00000334      -0.00019731       0.00014332      -6.45777382
O       21.03348143      16.97889547       6.93865407       0.00000376      -0.00004719       0.00006181      -6.71601577
O       17.13815880      20.92058642       2.77797164       0.00012144       0.00027771      -0.00014633      -6.82141371
O       16.72712744      17.90595858       3.62224132      -0.00022275      -0.00018257       0.00002591      -6.67643515
O        3.00059891      14.61756250      18.74106292       0.00001832       0.00010011       0.00009853      -6.82930462
O        6.90583137      18.21032715       6.41657250       0.00007647      -0.00018041      -0.00007283      -7.06731929
O        2.16857392      21.19805857       8.80747845       0.00006593       0.00027001       0.00013410      -6.58805090
O        6.87464262       9.67719841       6.31363824      -0.00018288       0.00012129      -0.00000284      -6.69065931
O       22.15531305      18.61058196       0.62301597       0.00044746      -0.00024069       0.00004723      -6.58543724
O       14.75515074      13.84595224      11.74371417      -0.00004296       0.00020369       0.00013719      -6.70765798
O       10.89373890       1.94651048      10.35299150      -0.00006588      -0.00027762      -0.00039942      -6.39045964
O       20.62975867       3.63032585      19.29652181       0.00003569       0.00014901      -0.00014088      -6.70072693
O        3.36842422       1.37835747      17.21099622       0.00035099       0.00023991       0.00014142      -6.72125247
O       17.93792187       3.49687455       7.62717085       0.00023850      -0.00004307       0.00003731      -6.32135416
O        5.32134996      21.64774839      18.07295842      -0.00043461      -0.00001419       0.00037642      -6.57622483
O        6.32024890       7.90118696       4.06664842       0.00010890      -0.00007845       0.00007650      -6.10387464
O        8.30010124       2.46786649       3.41268619       0.00072332      -0.00025980      -0.00041169      -6.66559119
O        4.69683796      11.86664961      20.15674748      -0.00017322       0.00002853       0.00009529      -6.78683062
O        0.50658147       5.26845169      21.75906391       0.00012264       0.00000404       0.00012355      -6.48990997
O       21.14684153       6.74067739       1.33642352      -0.00020648       0.00006999      -0.00023484      -6.70684835
O       16.68846312       8.44713682      20.97788489      -0.00010277      -0.00014734      -0.00036607      -6.52310484
O        1.13028622       2.67708579       8.69186844      -0.00022728       0.00045169       0.00009230      -6.52475862