768
Lattice="21.55363875 0.0 0.0 0.0 21.55363875 0.0 0.0 0.0 21.55363875" Properties=species:S:1:pos:R:3:forces:R:3:energies:R:1 Time=32500000.00875951 energy=-7707.321229355318 virial="-0.11207104 -25.00952682 -9.198354 -25.00952682 -22.34202282 -10.58749729 -9.198354 -10.58749729 -54.17151679" stress="0.00593827 -0.00249808 -0.00091878 -0.00249808 0.00371783 -0.00105753 -0.00091878 -0.00105753 0.00053854" pbc="T T T"
O       11.73788143      17.50518236      18.79317698      -0.00026048       0.00033027      -0.00017883      -6.67362616
O        1.13671713      18.07044273      20.80452556      -0.00011708       0.00006644      -0.00015959      -6.82311183
O        6.76941027      13.11146800      16.67291172      -0.00018449       0.00009351      -0.00034079      -6.64535851
O        8.45854067      11.11060573       6.52221440       0.00011682       0.00035557      -0.00041409      -6.43520319
O       15.65593989       3.15092863       4.87869091       0.00004010      -0.00017252      -0.00000040      -6.06019035
O       17.85240958      12.21196076       8.40039702       0.00010826       0.00011939      -0.00022005      -6.60531291
O       21.47911312      15.74677771       5.89232789       0.00002534      -0.00014291      -0.00017402      -6.32164472
O        4.30586870       8.54106567       9.30790688       0.00008253      -0.00023545      -0.00033306      -6.57421038
O       17.78465556       0.82082363       8.98377224       0.00029220       0.00014223      -0.00016040      -6.65845088
O        7.37790465       6.45316757       7.55154362      -0.00011288      -0.00046274      -0.00033219      -6.45052162
O       10.06999338      19.94607969      19.72372381      -0.00019077       0.00001896       0.00020075      -6.66939678
O        7.56811947      12.74409662      19.59011066       0.00009027      -0.00014004      -0.00000660      -6.90187454
O       12.33201005       1.11885615      17.74555988       0.00000716       0.00014542       0.00040715      -6.32290858
O       18.67762257      19.92854978      16.86763794       0.00014824       0.00005053       0.00067798      -6.56070058
O        6.66330066       5.12288018      20.20305681      -0.00013311      -0.00014907      -0.00032531      -6.25235284
O       14.23835825       9.38837033       7.19773493      -0.00002248       0.00001917      -0.00034932      -6.94057446
O        0.98094090      13.45780488      16.24065669       0.00032435       0.00006767      -0.00004374      -6.82435856
O       21.25078613      15.37376905      10.72490676      -0.00026381       0.00041225      -0.00029506      -6.41506714
O       21.52603858      15.13143813      18.49789389       0.00017089      -0.00007188       0.00018522      -6.37042130
O        7.99119318       3.26359479       9.81770124       0.00006404       0.00001175       0.00016249      -6.46428435
O       20.83736588       0.60190536      18.58833279      -0.00004753       0.00015038       0.00008408      -6.48493687
O        6.80996576      10.32144693      11.47085359       0.00005927      -0.00000989      -0.00027308      -6.25311192
O        2.17190273      14.66067414       4.15306159      -0.00037906       0.00000759      -0.00005316      -6.05231717
O        0.63130607       7.89081970       9.30121907       0.00007380      -0.00001489      -0.00008310      -6.73909909
O       17.83529450       9.22306945      15.30825797       0.00019014      -0.00034359       0.00003567      -6.25555336
O        1.92054680      16.25893706       2.18667880       0.00009286       0.00003627       0.00000500      -6.13409164
O       19.80827920       7.55120771      20.58352969       0.00011619       0.00008873       0.00009767      -6.44627534
O        0.60078854       2.06952817       7.73797446      -0.00013214       0.00013347       0.00004117      -6.81691567
O        7.88203222       9.76741689      18.74668042       0.00042190      -0.00006151       0.00015709      -6.69660054
O       10.44326452       5.98349726       7.96227667      -0.00016741       0.00012265      -0.00024175      -6.65725530
O        9.82232554      13.35444349       7.53474860       0.00051577       0.00010622       0.00007178      -6.19261338
O        4.93732841       9.85405741      19.70445389       0.00010533      -0.00013022      -0.00017606      -6.55615407
O       18.30549351       2.00836924       3.42843634      -0.00050029       0.00012291      -0.00007528      -6.62327668
O        1.61662501      10.62786853      10.15380316       0.00050077       0.00006806      -0.00009759      -6.66561516
O        7.54557726      20.73243966      16.60501823      -0.00011077       0.00012720       0.00022814      -6.37257223
O       16.74890450      18.58856824       3.90703729       0.00013662      -0.00002004      -0.00002883      -6.24761043
O       16.56629790      20.05450352       6.96836516      -0.00008014       0.00001956       0.00004686      -6.33744166
O       14.78965682      20.60948690      12.76409239      -0.00016642       0.00012791      -0.00027513      -6.33275894
O       19.51008939      20.52321413      11.47325612      -0.00034645      -0.00034459       0.00022474      -6.09500441
O       12.98143511       2.72999885      12.40017491       0.00020497      -0.00013105      -0.00033592      -6.70790498
O       18.93885950      15.61575763       4.08851912      -0.00010582      -0.00028337       0.00018952      -6.41600385
O       20.78755004       2.56715723       0.49293587      -0.00022588      -0.00023934       0.00001089      -6.44368039
O        7.11860808      16.64583719       9.32730051       0.00015845       0.00023841       0.00028028      -6.59307293
O        6.15992068       4.48682040       1.71099383       0.00037898      -0.00012194       0.00000097      -6.45257839
O       12.49827458       4.89949821       3.43695510      -0.00000995       0.00022498       0.00007121      -6.76461890
O        7.55551653       2.12615779      15.88190557       0.00013410      -0.00006201      -0.00003940      -6.56114302
O        9.48179393      14.92725733      11.47003771       0.00018274       0.00006333       0.00018652      -6.18334108
O        9.00537360      11.92515251      17.07594686       0.00009123       0.00019438      -0.00005003      -6.76266676
O        1.54428109      16.24579799      16.07932554      -0.00008521      -0.00020601       0.00002368      -6.62969359
O       21.37298835       8.36621203      18.18148656       0.00029684      -0.00039931      -0.00016703      -6.33547723
O        1.13002770       6.99775234      12.16739796      -0.00006340       0.00019625       0.00004763      -6.56248595
O        9.99438155       3.73250480       1.64816456       0.00008244       0.00002963       0.00011503      -6.61720941
O       16.62380919      16.75203124      15.17176006      -0.00049959      -0.00074339       0.00017099      -6.61573345
O       11.83113374       4.22098461      17.39459738       0.00024328       0.00002701      -0.00009362      -6.09141385
O       13.02775994       8.05697255       3.92135299      -0.00008388      -0.00029925      -0.00010932      -6.60776383
O        2.68396030       2.99308787      15.24193916      -0.00005433       0.00001615       0.00005129      -6.74405053
O       11.76404518      16.31811169      11.05472788       0.00005938       0.00026886       0.00024282      -6.34566653
O        5.12951500      15.85675133      20.49164102       0.00010485      -0.00019611      -0.00009898      -6.79529509
O        8.64449413       4.80971825       4.54217651       0.00008411       0.00046807       0.00011509      -6.79307019
O       20.29190530      15.54083931      16.06225102       0.00015094      -0.00018324       0.00010880      -6.27720655
O       18.44114900      20.64376026       5.15684996      -0.00006158       0.00003313      -0.00034085      -6.18940903
O        8.21788395       3.23733395      -0.05856896      -0.00004533       0.00024733       0.00008691      -6.34613755
O        5.67907199       5.84367330       9.36072463      -0.00008102       0.00001165       0.00008299      -6.78957252
O        8.67354494      17.55264527       5.36573289       0.00012723       0.00025915       0.00033487      -6.68058757
O       16.78525996      10.78020598      18.52678245      -0.00032991       0.00005543      -0.00001883      -5.92551735
O       11.18431077      15.30137046      13.56662297       0.00016690      -0.00002653       0.00020934      -6.77533951
O        1.59328173       7.60619658       5.55911457      -0.00039116       0.00002786       0.00001944      -6.45287589
O       15.97608436       2.77257602      16.35729407       0.00025927      -0.00007939       0.00006735      -6.12320027
O        4.31379489       7.40880329       6.60484397       0.00004413      -0.00004646      -0.00005001      -6.58321907
O       13.40593359      14.65894437      12.07943264      -0.00005345       0.00010846       0.00002223      -6.57154364
O        0.71653834       2.55944303      19.66384468       0.00008887       0.00013901      -0.00004546      -5.86106774
O       13.75251781      18.70231215       2.37439745      -0.00020338       0.00020926      -0.00041946      -6.45565097
O        6.06299455       1.31180464       9.06501144       0.00009246       0.00011513      -0.00023995      -6.78347188
O        2.50044862       5.09897716       4.14552929      -0.00014550       0.00001628       0.00015520      -6.59241896
O       20.29933567      14.05182041       1.15414341       0.00011018      -0.00010179      -0.00028334      -6.44334003
O       18.02772780       9.79182576       0.31332257       0.00039107      -0.00035780      -0.00004450      -6.57675513
O       14.69957336      10.20080495      10.29165399       0.00003068       0.00004881       0.00002390      -6.67811803
O       18.56498947      20.28916203      13.93479475       0.00048656       0.00010000      -0.00010183      -6.35680301
O       14.36020721      21.17438318       4.93722339       0.00001486      -0.00019286       0.00014364      -6.29149542
O       18.84261402      11.21534548      16.86670928      -0.00021178       0.00008492       0.00001735      -6.42065308
O       18.96061652       5.21729438      14.73128525      -0.00005771       0.00005742      -0.00021663      -6.46742644
O       15.04221133       1.25574555       7.97808237      -0.00021490      -0.00006064      -0.00021158      -6.74972228
O        9.45944511       3.89334092      19.39592061      -0.00018498      -0.00005465       0.00006385      -6.53821612
O        8.83754585       7.36550673       5.38221153       0.00014202      -0.00000564       0.00001250      -6.28736023
O        1.76875981      17.30231923      11.76325592       0.00006207      -0.00007003      -0.00006448      -6.82445340
O        4.69577288      20.09052196       3.95033114       0.00020233      -0.00034679       0.00010177      -6.57845016
O        0.83540093       3.95207764       6.08037966       0.00011329       0.00004892       0.00042572      -6.72546114
O       11.04152605      11.38649595       2.21928577       0.00013809      -0.00006846      -0.00029978      -6.75018912
O       20.76767888      18.24974665      11.37318181      -0.00007239       0.00012499      -0.00037854      -6.14869694
O       13.02442893       2.87659128       1.71262105       0.00011587       0.00007893      -0.00040610      -6.68328065
O       13.84515293      15.87411825       6.43989962       0.00019645       0.00037293      -0.00032165      -6.06050524
O        8.62115783      11.65443627       0.76787195       0.00035455      -0.00035890       0.00055935      -6.69363874
O       11.79044285       4.06773475      20.49143938       0.00030629      -0.00028907      -0.00027006      -6.53078655
O       18.26111320       1.15922379      17.31344659       0.00013629       0.00025911       0.00007033      -6.06475360
O       16.93173273      19.18675589      12.25729091      -0.00006786       0.00012507       0.00002619      -6.76771566
O        5.45919464      10.45014810      13.94936400      -0.00009816       0.00020495      -0.00018570      -6.24708598
O       14.75457023      12.26891052       7.99641749       0.00020155       0.00005065      -0.00047044      -6.42065993
O        8.64905915       4.67496684      13.43846499       0.00008229      -0.00006330      -0.00018110      -6.11372228
O        7.19398166      18.28950032      15.53474750       0.00005701      -0.00002343       0.00022672      -6.41611677
O       18.17982840       5.98771657      19.34516609      -0.00011056      -0.00001397       0.00003912      -6.42825099
O       11.12051163       7.12249073      18.02167359      -0.00017503      -0.00026392      -0.00040781      -6.41570393
O       20.66246229       3.25812370      15.48434411      -0.00001318      -0.00039094       0.00045455      -6.67195026
O        8.53922960       6.12624365       0.24316063       0.00006347      -0.00003952       0.00008370      -6.55537200
O       10.20214985       1.83976291      11.41074386      -0.00003647      -0.00011135      -0.00000523      -6.67617312
O       10.49809626      17.77725267      -0.03449636       0.00011302      -0.00029715       0.00020494      -6.57046958
O        1.44291681       6.09596543       1.56286584       0.00006555       0.00021771      -0.00011044      -6.55189947
O       12.40795593      10.82529855      21.03822132      -0.00040412       0.00024430      -0.00002305      -6.54810628
O       19.93780016       3.87584593       8.03463662      -0.00029190      -0.00025741      -0.00019621      -6.67430952
O       13.50891269      21.54055506       2.31254242       0.00005879       0.00026381      -0.00015758      -6.54641335
O       19.29374587      14.18148052      13.38500815      -0.00003935      -0.00002349      -0.00024935      -6.51740224
O       18.93297917      11.26712781       6.08886769      -0.00004060       0.00002889       0.00012933      -6.28347757
O       20.84300175      20.49705601       4.62489299      -0.00039961       0.00002316      -0.00006073      -6.66550948
O        3.84141198      10.72791278       0.30956764      -0.00015244       0.00013323      -0.00007448      -6.49000672
O       16.39825031      17.80689091       1.51011820       0.00006002       0.00029206      -0.00017360      -6.40304816
O       19.95380919      16.76237289      19.85647746      -0.00050090       0.00033344      -0.00033775      -6.65228846
O       19.03587356       0.30750007      20.83505334       0.00011066      -0.00013259       0.00012905      -6.40433868
O        2.98647672      19.81448856      12.47887458       0.00018642       0.00000630       0.00014092      -6.57637546
O        5.14019451       0.05668901      20.79841949      -0.00009669       0.00010661       0.00016398      -6.61881169
O        2.06291742      20.61434253       4.77860391      -0.00005832      -0.00009115       0.00034123      -6.70253932
O       15.69804035       7.84027127       5.02450939      -0.00024074      -0.00012957      -0.00017282      -6.54223932
O        5.95626051       7.47079640      16.81284730      -0.00037532      -0.00008752      -0.00007768      -6.38387891
O       12.36875965       9.46732839      12.33760269       0.00054740      -0.00010638       0.00034617      -6.39280537
O       17.63228796      12.48115820      20.12948529       0.00002576      -0.00042568       0.00025708      -6.38579599
O       17.78021445       4.50864911       3.61245754      -0.00014399      -0.00032289       0.00003261      -6.34889824
O       12.30830916      14.93614359      19.37550319       0.00011302      -0.00011147      -0.00001583      -6.49334329
O        4.11618357      13.04399464       3.66589513       0.00032012      -0.00020721       0.00004663      -6.40599864
O       16.36065773      14.57819027       6.53814257      -0.00008627      -0.00009038      -0.00019857      -6.53105465
O        8.96962871       9.27204522       1.60459046       0.00022908      -0.00009727      -0.00011997      -6.46930330
O       15.17665615       1.52029472      13.35037654       0.00041486       0.00001761      -0.00022514      -6.36901784
O       19.45247816       4.25627768       5.45768330       0.00005368      -0.00023157       0.00004448      -6.66446399
O       15.25673622       9.17086801      20.72646803      -0.00005302       0.00001102      -0.00017747      -6.19030722
O       10.72156916       7.00094233      14.51123799       0.00014882       0.00040041      -0.00001590      -6.28853154
O       10.22535839       4.34587696      11.36335511      -0.00019094       0.00010155       0.00012574      -6.58459967
O       12.94721778      11.10443412      15.79723327      -0.00035264       0.00002578      -0.00030250      -6.32058966
O        9.10144618       8.02108243      16.45863812      -0.00021417       0.00021383       0.00004930      -6.15744357
O       16.09765060       1.25893813      18.79540714       0.00015996      -0.00003686      -0.00011402      -6.36644758
O        5.36818024      16.95119183       7.62322819       0.00014540       0.00022102      -0.00006436      -6.38693777
O        8.88896592       2.14105697      13.61105854       0.00003605      -0.00021354       0.00045386      -6.31590176
O        6.97336087       6.82156435       2.33985404      -0.00011229      -0.00022510      -0.00014447      -6.34355660
O        8.93901888      18.61008470      13.48704576      -0.00006929       0.00012232       0.00018599      -6.28010818
O        9.51770259      11.82954742       9.40642310       0.00020252       0.00043402       0.00008916      -6.14155204
O       13.82592150      20.69120130      19.85619201       0.00034646      -0.00030616      -0.00001383      -6.33199824
O       19.01572896      17.45417202      14.44457571       0.00001801       0.00022634      -0.00023045      -6.41542439
O       21.33032074      16.51456920       0.86698571      -0.00017175       0.00001116      -0.00028693      -6.45410411
O       10.99409888       2.89090509       6.93777659      -0.00017468      -0.00006480      -0.00005871      -6.28244655
O        3.22211205      11.89417266      12.87147948       0.00003858       0.00025219      -0.00025923      -6.67931818
O        9.68268940      18.69259741       7.74437799       0.00019896       0.00006959      -0.00004800      -6.79540618
O        1.62457434       8.25907261      14.43714583       0.00020135      -0.00007032      -0.00022877      -6.06103266
O       15.89980267       7.69497836       2.49453363       0.00014386       0.00019063      -0.00040968      -6.50603362
O        2.55221736       4.52347246      13.00017498       0.00005784      -0.00000127      -0.00018044      -5.93118202
O       16.20273620      17.35985825       6.81988632      -0.00017489       0.00010365      -0.00021840      -6.40397098
O        3.00699359      19.15970584       1.58449106       0.00020830      -0.00044148      -0.00004491      -6.44615268
O       17.81996979       2.87072431      10.46712068      -0.00005197      -0.00030512      -0.00033479      -6.39497962
O       11.07582217       6.33697942      21.35343552       0.00021812      -0.00031165      -0.00003733      -6.64368202
O        7.26446435      19.80654142      20.30669611       0.00002940       0.00040199       0.00007830      -6.45993345
O        1.67289382      13.54856192      10.54146658       0.00010016       0.00000950      -0.00004051      -6.65670684
O        9.70991186       8.89882105       7.61762893       0.00002176       0.00006830       0.00020453      -6.47331529
O       18.28615213       7.14133186       3.56038966       0.00000689      -0.00003488       0.00019190      -6.58596657
O        3.43364023      17.15365980       3.97942053       0.00066132      -0.00001003       0.00023345      -6.13132638
O       20.31668487       6.59343766       6.93855444       0.00001536      -0.00013165       0.00014785      -6.59074613
O        1.08568458      20.22707320      18.34108291       0.00005972      -0.00003901      -0.00012890      -6.65595412
O        9.86443495       2.38789883      17.02589013      -0.00010110      -0.00022238      -0.00000471      -6.21669562
O        4.43113314      10.95000761      10.34774527       0.00048007      -0.00019604      -0.00013627      -6.86859398
O       17.78319872      11.79254433      14.29267465       0.00010826      -0.00006796      -0.00006424      -6.49490661
O        8.81805485       7.16365072      12.76556657       0.00014641      -0.00020859       0.00015173      -6.30072651
O        0.06718112       5.98095396      15.53130457      -0.00021658       0.00015550      -0.00023376      -6.34745759
O       12.16346648      12.33190231      17.97998948       0.00010643      -0.00030287       0.00024537      -6.52430045
O        2.40556665      21.12797522       7.86607559       0.00022329       0.00012911       0.00039888      -6.82703432
O       13.32601013      18.70508752      11.93022253       0.00025164       0.00005010      -0.00011980      -6.52327612
O       13.83350895      18.74366028      14.90727635      -0.00013685       0.00035997       0.00042705      -6.29407913
O        8.72856926       6.78747153      10.02566599      -0.00040848      -0.00018051       0.00005383      -6.27520333
O       15.53534199      11.53234311      21.79217249       0.00017983      -0.00009997       0.00010138      -6.29872322
O       12.03590821       1.46370679      20.49198645      -0.00011160      -0.00001653      -0.00005630      -6.40131400
O       17.55448931       7.10615763       0.67525370      -0.00005909       0.00018661       0.00004314      -6.34004118
O        2.28881254      10.32474098      18.61637391       0.00015017      -0.00033492       0.00003363      -6.62936408
O       11.66242004      12.24073216      12.30816424       0.00013181      -0.00032673      -0.00011923      -6.90669223
O       10.88452797       9.90891908      14.93677112       0.00016527       0.00023502      -0.00000377      -6.60294372
O        1.79798941      18.30602827       8.17971702      -0.00000837      -0.00007469       0.00022223      -6.39638856
O       16.67025019      17.78451452      20.38471878       0.00024717      -0.00022043      -0.00001322      -6.64791768
O       19.10028366       4.54427408      12.07141467      -0.00008584       0.00006676       0.00034169      -6.03036728
O        5.28483982      15.35947388       4.53129532      -0.00022521       0.00026260       0.00015731      -6.29300462
O       18.76214615      19.06525437       0.16903257      -0.00023245      -0.00076769      -0.00028703      -6.61268970
O       21.04241195      18.50024742      16.68765695      -0.00013559      -0.00096423       0.00004735      -6.42697752
O        9.79302602      15.07421204      20.57736174       0.00013299       0.00006275       0.00032671      -6.62403588
O        5.12562712      12.42555914      18.64706271       0.00009629      -0.00006911       0.00039963      -6.43376567
O        4.55784945       3.07806399      11.42299932      -0.00000529      -0.00034633      -0.00028265      -6.76684432
O        8.36613262      21.16193092      13.82915287       0.00049340       0.00006462       0.00003956      -6.34050425
O        7.53716753      14.31510633       7.61106817      -0.00026597       0.00014868       0.00009398      -6.52402065
O       11.49909575      15.72135470      16.84076587      -0.00002670       0.00021091      -0.00006636      -6.23300148
O        4.46348830       6.99146318      18.67493375       0.00016784       0.00021068      -0.00028135      -6.21585734
O       19.00488709      19.91494771       7.82797772       0.00009694      -0.00001399      -0.00019563      -6.43511013
O       -0.31129182       2.03273996       4.55499880      -0.00007252       0.00008040       0.00010055      -6.45372275
O       11.04251529       5.44662153       5.48396917       0.00034874       0.00017915      -0.00003721      -6.63853171
O        7.16229860      20.94394212       5.39236592      -0.00023739       0.00027033      -0.00020949      -6.76679678
O        6.85438503       4.40834261      17.81191463      -0.00015431      -0.00011204      -0.00007843      -6.41441183
O        0.09802335      19.61535160       1.32035087       0.00001136      -0.00005382      -0.00011634      -6.56840496
O        9.90368360       1.07553719      19.10320259       0.00021313      -0.00021286      -0.00001948      -6.19121867
O       13.65610016       5.70423831      18.62701127      -0.00021865       0.00017711       0.00018857      -5.67073266
O        3.71122327      18.74262090       6.25598277       0.00014912      -0.00010249      -0.00016581      -6.22589535
O        7.16978298       1.46251748      18.77580624      -0.00016237       0.00032117       0.00035732      -6.98391868
O       12.70185884       0.77414455       6.77705187      -0.00022342       0.00009496      -0.00016160      -6.40732049
O       11.02822073       7.11725052      11.25787752      -0.00000332       0.00017265      -0.00011349      -6.30434132
O        6.71882111       1.37860210       1.11480435       0.00005574       0.00024368      -0.00015783      -6.29747712
O        8.76503056      12.30411841      11.91995000       0.00001727       0.00017880       0.00016535      -6.09803068
O        5.94665881      15.18337244      12.96109523      -0.00044710      -0.00012274      -0.00006944      -6.54656410
O        2.95069220       4.15398405      18.98888524      -0.00009210       0.00017935       0.00002207      -6.37480475
O        3.86292765      15.21333595      17.63606847      -0.00012490       0.00002725       0.00003746      -6.70109159
O       16.05449136      10.45285325       5.45202907       0.00021734       0.00003551       0.00016882      -6.58825571
O       16.19739392       4.83601792      11.43084929       0.00006244       0.00009329      -0.00000132      -6.19278329
O        4.18106360       8.36527229      15.11865204      -0.00019491      -0.00011485       0.00012301      -6.48077233
O        8.81480133       1.59187359       6.08239938      -0.00011428      -0.00022550       0.00019400      -6.56075134
O       19.94292631      13.83246147      19.85057426       0.00034023      -0.00001163      -0.00001465      -5.99224695
O       19.20242802      18.04872761       2.68791443      -0.00016499      -0.00026633       0.00026196      -6.33419164
O        0.36461423      12.80234493       5.45041152      -0.00004198      -0.00004203       0.00013514      -6.54531396
O        2.32087332      16.41460699       6.24157094       0.00006958       0.00000524      -0.00024505      -6.23137785
O       16.59254169      10.35540609       2.80606879       0.00004340      -0.00021851       0.00009896      -6.36251823
O       11.94830430      13.96211373       3.29386042       0.00001608       0.00003923      -0.00004687      -6.75490445
O        4.30214003       5.35639269      20.98061658      -0.00016299      -0.00022237      -0.00000939      -6.16488592
O       16.61060085       9.97196946       8.48235407       0.00014306       0.00002228      -0.00010337      -6.37781786
O        6.95178665       1.90731201      12.16674393       0.00017888       0.00017436       0.00032871      -6.44708003
O        9.39779954       5.13939240      16.24609089       0.00014667      -0.00001237      -0.00008631      -6.57947297
O       11.13652407       4.30007075      14.35679501       0.00006051       0.00005520       0.00033817      -6.37117819
O        9.54800059       9.38116764      10.09393278      -0.00026840       0.00011555      -0.00007206      -6.71360424
O        1.93008907       1.94799882      12.59962042       0.00028777       0.00001811       0.00025507      -6.53274349
O        2.65529548      10.92654391      15.69488602       0.00034491      -0.00024356      -0.00014663      -6.42607732
O        0.03087380      10.17290010      16.23288793       0.00047277       0.00015504      -0.00002227      -6.27333841
O       11.53372982       8.91243183       1.25203745       0.00001749      -0.00026334       0.00005452      -6.66018991
O       13.98630952      15.38040972       9.28686185      -0.00022914       0.00015870      -0.00028396      -6.68123599
O       20.81978243      17.46836012       8.71148771       0.00019612       0.00006645       0.00013577      -6.25287334
O       16.91432653      20.33412770      19.23900381      -0.00002685      -0.00001911       0.00005487      -6.25843813
O       12.43777032       8.22080259       9.31984061       0.00000216       0.00016258      -0.00011230      -6.57422767
O        2.56186808      11.34253894       2.35548868      -0.00011254      -0.00018902       0.00010895      -6.36081227
O       14.20705762      10.13573860      17.90468534       0.00004142       0.00031873      -0.00011600      -6.36246660
O       18.96591606      14.59258246       6.40847762       0.00009117      -0.00002626      -0.00025865      -6.70799185
O       20.83005805       9.40012794       7.52094525      -0.00029176      -0.00010518       0.00006671      -6.46587826
O       17.03396285       9.42547095      12.54513922       0.00008199      -0.00007640      -0.00004488      -6.31484278
O        5.55493279      14.56345679       2.04779398       0.00011204      -0.00043516      -0.00003984      -6.29670510
O        6.36976726       2.18873114       6.47200057      -0.00016320      -0.00010547       0.00003026      -6.46463852
O       15.52041923       5.42783479      16.54209529       0.00045755      -0.00009209      -0.00000494      -6.30607313
O       19.41849070       7.55838367      12.84864942      -0.00005640      -0.00013941       0.00029907      -6.38253576
O       19.63907215      10.36649735      13.05753356       0.00035838      -0.00024782      -0.00003204      -6.07729482
O       13.84811948       3.59158149       6.79937468       0.00014035      -0.00006744      -0.00027993      -6.27316088