768
Lattice="21.49272994 0.0 0.0 0.0 21.49272994 0.0 0.0 0.0 21.49272994" Properties=species:S:1:pos:R:3:forces:R:3:energies:R:1 Time=40500000.02084529 energy=-7712.400727296972 virial="11.21347559 -17.12004738 -19.12462289 -17.12004738 -18.00789738 38.80212595 -19.12462289 38.80212595 -8.25566033" stress="0.0017961 -0.00172443 -0.00192634 -0.00172443 -0.00114724 0.00390837 -0.00192634 0.00390837 -0.00016494" pbc="T T T"
O        4.08738965      11.32504617      16.31690655      -0.00003602       0.00021024       0.00015822      -6.41164718
O        3.38883443      18.32436084       1.18438213      -0.00000246       0.00015258       0.00013676      -6.54661568
O       16.63313181       8.42061538      15.26288732      -0.00009830      -0.00002999       0.00005896      -6.65078867
O       14.05464912      11.41785937      11.11991945      -0.00021520       0.00031556      -0.00014483      -6.43721003
O        8.10152335      14.53068042      16.96335229      -0.00006149      -0.00024657      -0.00013155      -6.54092431
O        7.57255854       2.37286703      17.14973494       0.00010244       0.00035674       0.00021569      -6.32700263
O        3.97497565       0.00804635       5.64428839       0.00006991      -0.00021277       0.00002000      -6.49521394
O        8.17844674      20.70560689       1.64062411       0.00012695       0.00016445      -0.00012262      -6.62000482
O       14.59475824       1.03838484      19.40067829      -0.00033568      -0.00021684       0.00008289      -6.41491877
O        8.30755456       7.22191434      19.04796781      -0.00010453      -0.00019804       0.00008089      -6.34148703
O        0.17676178      12.09658796       2.92977234      -0.00038080       0.00017405      -0.00000627      -6.30474259
O        0.60402801       3.77666196      20.46265870       0.00014383       0.00009071       0.00003147      -6.61544060
O        8.52003174      19.62552279      20.29188443       0.00015490      -0.00024316       0.00011320      -6.29128666
O        0.84974060       6.96913856       0.79926263      -0.00008410       0.00020053       0.00035545      -6.56449591
O       21.09312399       9.12867951      12.83555941       0.00006084       0.00010030       0.00006190      -6.46448554
O       13.38727077       5.82145071      18.62895259      -0.00006949       0.00006968       0.00006011      -6.57224860
O        8.44407457      15.10945551       0.58264339       0.00008175       0.00047539       0.00018361      -6.17816031
O        9.69257107       8.62352991      16.87343557       0.00000098       0.00032859      -0.00004799      -6.36387284
O        8.82319822      14.51546546      19.45849261       0.00005496       0.00039913       0.00024396      -6.19676252
O       20.52974797      12.42841829      16.24009988       0.00018327      -0.00030311      -0.00001930      -6.27730796
O       10.37092052       2.41525520       0.33384515      -0.00025944      -0.00038735       0.00021065      -6.71371033
O        9.77423896      11.18918316      18.33415955       0.00007068      -0.00006966      -0.00013557      -6.66019357
O       18.65088350      12.75617040      11.71137928       0.00025928      -0.00038973      -0.00016491      -6.30742748
O       20.60163183       9.59211806       1.20257112      -0.00019152       0.00008190       0.00015592      -6.74171197
O        4.40947633       7.32499738       8.18074677       0.00004591      -0.00026382       0.00018111      -6.20589876
O        0.37571640      18.52092886      16.73040128      -0.00033292      -0.00013192      -0.00006282      -6.31801025
O       19.80265482       6.65508059       2.44472517      -0.00048557       0.00009006       0.00010205      -6.84696894
O       19.70894219       5.63064486       8.13331606      -0.00023441       0.00014644       0.00015919      -6.46693644
O       20.50661607      13.25785839       7.46763272       0.00021278       0.00010909      -0.00018197      -6.53857650
O        0.36104109       0.54956446      16.36096684      -0.00009039      -0.00052065      -0.00010657      -6.67604443
O       10.81891793      13.63285912      18.16328515       0.00003421       0.00013008      -0.00036767      -6.43464017
O       12.67093857      20.29814356       4.08641296      -0.00000014       0.00029666      -0.00024447      -6.63062529
O       20.17056832      12.15246753       0.83124707      -0.00009926      -0.00006643      -0.00009882      -6.57503311
O        5.03359375       9.84120189       0.08311909       0.00001226      -0.00028684      -0.00012696      -6.55908477
O       19.57162969       2.77904443       5.21530205       0.00013476      -0.00002477      -0.00007937      -6.59988922
O       17.23611088       1.52902653      21.02443128      -0.00001475       0.00012585      -0.00019863      -6.73294490
O       19.96336020       2.66434112      17.24904661      -0.00011720      -0.00003569       0.00007100      -6.75260870
O        5.58440774      14.36611426       1.92900739      -0.00015000       0.00036094      -0.00009844      -6.07001088
O        8.26015834       9.66291340      20.53905501      -0.00014437       0.00046203       0.00015163      -6.36364216
O       15.08106765       6.11834411      21.12998363      -0.00027466       0.00010238       0.00017864      -6.20400915
O       17.72668097      11.88306616      15.53580145       0.00003700       0.00016714       0.00060346      -6.61147146
O       13.86412623      18.92897654      18.34671105       0.00028369      -0.00003348      -0.00006426      -6.37626570
O        0.57854115      14.27066156      20.80959001       0.00010702       0.00019102      -0.00014600      -6.35198508
O       19.64688950       2.03435893      14.79585951       0.00015046       0.00024150       0.00039629      -6.78595753
O       17.96136926       4.76677415       5.70237650      -0.00023162       0.00038370       0.00037430      -6.59062653
O       13.66250973      16.66992786      10.25909622      -0.00015639       0.00008126       0.00006343      -6.25147363
O        4.14710760       2.55694573       0.55731056       0.00017426       0.00005596       0.00016206      -6.96885042
O       20.37901462       4.17954323      12.10530456       0.00008858       0.00000695      -0.00017235      -6.48162870
O        1.00663359       3.35258091      17.65013277      -0.00034365      -0.00010722       0.00039829      -6.44388309
O       11.92165718       6.60720798      14.80482165       0.00005822       0.00031003      -0.00005497      -6.34028648
O       13.19599454      16.69667622       7.37691103       0.00000529       0.00005773      -0.00011638      -6.53150128
O        4.26412368      11.14017468       2.34487688      -0.00024069      -0.00006589       0.00038696      -6.35731247
O        9.69320116       4.51341635      16.55639573       0.00006557      -0.00020981       0.00014573      -6.56212715
O       10.34606587      17.78916392      21.27170022      -0.00005045      -0.00009182      -0.00028529      -6.18895897
O        3.62600244      12.57144089      20.81223051       0.00004102      -0.00001857       0.00016213      -6.52213311
O       19.07144797      18.45656218       9.45115637       0.00001037      -0.00019358      -0.00010293      -6.61524437
O        0.08370671      15.14436832      13.21241355      -0.00003823       0.00005544      -0.00035771      -6.51349930
O        7.25629723      10.85153347      15.68425179      -0.00019905       0.00000052       0.00002339      -6.63253646
O       18.49536148      10.11317913      17.46488743      -0.00019275       0.00010386      -0.00012563      -6.56402077
O       15.37999811       9.25810603      12.57141218       0.00000571      -0.00002091      -0.00010827      -6.84007792
O       16.08755869      20.65519573       5.36164487      -0.00002793       0.00015542       0.00012115      -6.43059924
O       11.13696099      15.13975410      15.80320619       0.00019329       0.00000460      -0.00016540      -6.48367217
O        8.12810813      19.80207441      13.44997417       0.00018740      -0.00047700      -0.00050823      -6.03957464
O        5.75872188      16.56123015       0.20762727       0.00008170       0.00007024       0.00005756      -6.36725310
O       11.41907408       2.95337169       5.99666017      -0.00014840      -0.00007447      -0.00008817      -6.81032038
O       14.38302792      10.68768567      15.18603884      -0.00002346       0.00017363       0.00019421      -6.69170645
O        8.42519389      18.48693647       8.23001368      -0.00003153       0.00026265       0.00038227      -6.52095747
O        7.09249471      18.80750660      18.35789429      -0.00005571       0.00026857      -0.00047658      -6.48921833
O       11.22619983      16.15436101      11.65854643      -0.00001113       0.00020009       0.00006579      -6.37708239
O       10.19814535       2.47881733       8.68826432      -0.00010880       0.00007519      -0.00030755      -6.70863933
O       15.92192086       6.58980952      11.51824604       0.00012780      -0.00022162       0.00005499      -6.43048932
O        1.52810832      17.49321211      14.57071176      -0.00005787       0.00007358       0.00006857      -6.55186051
O        2.68554680       5.16619327      16.50101865      -0.00018714       0.00009188       0.00019255      -6.59624295
O       15.59718574       3.94838841      11.44353637      -0.00033096       0.00017405      -0.00035125      -6.36934132
O       20.29092764      17.30336576      14.66318287       0.00001618       0.00008206       0.00021145      -6.25509004
O       21.11143800       7.81788888      19.71947299      -0.00033077       0.00021619      -0.00023081      -6.26193836
O        9.37827808      20.07698266       4.09469424       0.00010859      -0.00025253       0.00026537      -6.44185684
O       20.38428558       5.73489523       5.02245215       0.00010208       0.00026908      -0.00016223      -6.81594071
O        4.98833510      13.56651546      11.56704579       0.00009099      -0.00022151       0.00021288      -6.86021347
O        6.89894732       8.35759225      14.03086505      -0.00005141      -0.00001285      -0.00018767      -6.73383069
O        9.66382550       5.57763731       0.52897618      -0.00034808       0.00026742      -0.00025741      -6.57769443
O        2.62401645      15.17544458       1.54888921       0.00001932      -0.00025504       0.00006301      -6.33005232
O       17.42480280       3.77760352       0.65211819       0.00025746       0.00002021      -0.00020300      -6.36912308
O       15.87976722      12.76649771      13.47631891      -0.00033789       0.00022776      -0.00006106      -6.85303032
O        6.28344773      12.75846693      17.10995108       0.00003542      -0.00001340       0.00030854      -6.63435727
O        8.68664011       8.66487660       9.61513184       0.00043752      -0.00020656      -0.00047313      -6.43705025
O        5.81184147       5.56748216      10.58495973      -0.00005974      -0.00008635       0.00026541      -6.53456473
O       20.12654196       1.10816707       2.51174197       0.00008188       0.00017737       0.00023844      -6.41680867
O       16.93161822       5.58407039      14.10757271       0.00029256       0.00028796       0.00010600      -6.82178238
O       13.15187720       4.90025697      12.63156044       0.00029960      -0.00008034      -0.00001286      -6.34130250
O        6.26735895       1.25894594      15.25513207      -0.00039011       0.00003059       0.00027631      -6.67660502
O       13.72277990       1.56643125      16.99376874       0.00000751       0.00018147      -0.00019528      -6.73022864
O        3.55440152       0.67023762      14.30692009      -0.00013843      -0.00001932       0.00010195      -6.61114739
O        0.80291244      19.84423251      11.87070473      -0.00015706       0.00002102       0.00000753      -6.62326335
O       14.05142239      13.35690041       1.07618810       0.00035962       0.00007281       0.00008684      -6.66554514
O        0.64292288      18.82472952       9.29868547       0.00025706      -0.00015760      -0.00004028      -6.49704678
O        3.05830948       5.66915865      10.68789718      -0.00001004      -0.00011904      -0.00016180      -6.36070867
O       14.90269088       8.16510396       1.15824025      -0.00026550      -0.00009033       0.00020257      -6.28806933
O       11.08282794      18.87174678       8.87755821      -0.00005628      -0.00025076      -0.00005579      -6.60152722
O       13.48595152      19.72099728       9.08036107       0.00025559      -0.00034688      -0.00020743      -6.66399812
O        2.26829374      20.11189242      17.59810558      -0.00022041      -0.00030035       0.00019838      -6.33514723
O       19.53320378      14.37215653      19.76295989       0.00032865      -0.00018499      -0.00025102      -6.72765393
O        2.33684422      19.90941496      20.20259836       0.00004735       0.00003090      -0.00021174      -6.44038437
O       19.12358879       8.86742812      10.52171499       0.00003098       0.00031600      -0.00004149      -6.33359996
O       14.90034721       1.76846011      14.01007603      -0.00031004       0.00041733      -0.00004929      -6.68161781
O       18.63540596       7.65132568      18.42066795       0.00009935       0.00009576       0.00017466      -6.42746440
O        6.46028500       2.89895784      20.08291010      -0.00011062       0.00000823      -0.00011231      -6.86475465
O        2.78591708      15.36758398      20.05347363       0.00027714      -0.00004877      -0.00025608      -6.70419184
O        4.00437546       7.89557912      14.21222727       0.00017050      -0.00000625       0.00008510      -6.44833979
O       15.45494152      17.37025764      20.14463508       0.00027674       0.00008010       0.00009379      -6.27660067
O        7.07602982      14.84556656      14.63530867       0.00046733      -0.00007019      -0.00003812      -6.56374104
O        2.54917315       2.03898947       7.28787252      -0.00044974      -0.00003436      -0.00030263      -6.62645530
O       15.90470820       3.90920001       4.24176742       0.00011304      -0.00005564      -0.00006295      -6.59934469
O       19.97260347       3.43100870       1.34278342      -0.00010987      -0.00013489       0.00040135      -6.63856610
O       19.32938748      11.10684434      20.17071363       0.00001906       0.00031765       0.00002820      -6.68410858
O       14.22984206      10.96719176      20.72484007      -0.00001868       0.00015938       0.00047661      -6.70414240
O        9.63331931      14.29065834      13.28258067      -0.00009143       0.00010492      -0.00010974      -6.41656034
O       20.38895255      19.99398853      14.64758102       0.00011425       0.00005507      -0.00019527      -6.52801334
O       15.06863137      17.87398294      12.78028011       0.00018189      -0.00058620      -0.00017532      -6.92174345
O       11.80639928      10.20931885      16.49871422      -0.00031844      -0.00013319       0.00024786      -6.52927327
O       17.12687256       6.50547771       1.82457757      -0.00012075       0.00014592      -0.00023955      -6.17202554
O       21.17553626      17.07646367      18.70150465      -0.00008253       0.00003521       0.00005875      -6.51990387
O        7.75678516      10.14401331       1.81076623      -0.00024955       0.00026218      -0.00008856      -6.31674349
O        1.05967002      17.27337486       1.81635763       0.00014684       0.00032234       0.00014076      -6.47020376
O        5.38705530      19.56842437      13.01749356       0.00027030      -0.00003548       0.00018747      -6.60274708
O        1.26665830      17.74169375      20.70375075      -0.00000809       0.00007171       0.00034005      -6.46028054
O       15.06155379      14.91909794       7.73762272       0.00039175       0.00009833      -0.00026788      -6.64596922
O       11.63914779       5.06767993       7.87589442      -0.00014537      -0.00010359      -0.00028635      -6.56116528
O       17.49025944      12.98532006       7.41702291       0.00000761      -0.00017827      -0.00020854      -6.95088141
O        5.08953790      18.84244837       5.68982191       0.00005157       0.00001376       0.00010539      -6.44806707
O       20.48327375      20.96915761      10.01200636       0.00004230       0.00011003       0.00004699      -6.66567955
O        4.76858354       0.99179377       8.36766244      -0.00000564       0.00057494      -0.00024098      -6.40274709
O       19.13767963       3.74095913      19.81053766       0.00025222       0.00001619      -0.00000188      -6.48910393
O       19.69043468      15.85083655      11.52710532       0.00022298      -0.00014016      -0.00036206      -6.33603990
O        0.40732643       4.23192440       6.39771371      -0.00006951      -0.00028040       0.00000690      -6.63484506
O        4.05166704      20.13202900      15.83290110      -0.00018829       0.00020372      -0.00004753      -6.47327885
O        6.89433815       8.19872009      11.27454868      -0.00007946      -0.00016386      -0.00000978      -6.16659444
O       12.80853862       7.78185023      20.96128350       0.00003781      -0.00007509       0.00047048      -6.59029738
O        5.80470043      19.08971837      20.86150132       0.00007727      -0.00002707      -0.00023900      -6.62610151
O       19.40106386       2.27366141      10.56615296       0.00005472       0.00001639      -0.00002874      -6.58088842
O        5.63831156      15.28992540      19.17161283      -0.00010215      -0.00012906       0.00010470      -6.93467866
O        5.77156084      16.25589606      10.45631282       0.00007162      -0.00013907      -0.00014129      -6.49604233
O       18.84822732       8.21962793       4.80957040      -0.00045478       0.00004056       0.00010896      -6.36881182
O       10.38907291      19.21636631      14.14875659       0.00034305      -0.00005413       0.00013156      -6.43124465
O       21.34030036       8.75611160       4.17266985      -0.00009777      -0.00016052       0.00035948      -6.37523549
O        9.79637522       1.00016275       3.19893645       0.00022396      -0.00039929      -0.00042004      -6.30844098
O       18.09735818       7.92639790       7.25896502       0.00024619       0.00033219       0.00038854      -5.83386577
O       17.84728573       1.02083566       8.93967633      -0.00020793       0.00032718       0.00021068      -6.52315362
O        0.59225733      19.86016295       2.43543465      -0.00006947      -0.00017196      -0.00023683      -6.40752777
O       21.17977091      15.15739936      16.27908440       0.00003327       0.00009236      -0.00011716      -6.69904010
O       10.65517755      11.97241908      13.04792334       0.00024658      -0.00040743      -0.00005868      -6.41546857
O        0.56398126       6.34930448      11.90429354      -0.00014985       0.00008782      -0.00013485      -6.61180653
O        2.91381574       4.82034078       5.17184061      -0.00001713      -0.00013893      -0.00004810      -6.39576670
O       16.94803301      19.14080284      15.24100352       0.00023830      -0.00040012      -0.00018954      -6.69475234
O       20.43063489      17.30586911       7.15677250       0.00007985      -0.00022115       0.00000947      -6.42134995
O        5.41615280      10.73304231      19.21577328       0.00003400       0.00016508       0.00001895      -6.76030326
O        3.14314564      18.01068525      12.38031635       0.00019988      -0.00007907      -0.00013991      -6.33624143
O       17.23856512       0.33457053      15.36840538      -0.00025049      -0.00009111      -0.00028489      -6.34721420
O        0.77171994      11.74976453      20.81663315       0.00015830      -0.00010042       0.00014273      -5.94103103
O       10.49046969      16.59021888      18.87281941       0.00005246       0.00011918      -0.00009431      -6.49169154
O       11.35589518      15.85771700       1.34496185       0.00014916       0.00021173      -0.00000732      -6.33747574
O       11.94093138      20.93657012      16.80253819      -0.00025351      -0.00021666      -0.00016681      -6.41502948
O        9.62502583       3.86586174       2.72962187      -0.00003927      -0.00021409      -0.00027620      -6.62317031
O        5.17649788       0.32101009       1.73951104      -0.00007206      -0.00005999      -0.00003143      -6.65426163
O       19.22228160      18.77725488      16.77354468      -0.00000109      -0.00008411       0.00040276      -6.38463904
O       10.22967521       0.33366573       6.45115255       0.00003925       0.00018846       0.00002523      -6.61720793
O       18.16266293       7.98315370      12.62624346      -0.00004606       0.00031415       0.00030308      -6.39673479
O       13.12720160       2.27052356      11.75553934       0.00018439       0.00005915       0.00028413      -6.55558530
O        9.42914643       6.84745656       3.32031669      -0.00054961       0.00000395       0.00013650      -6.84337056
O       17.92478118       6.42440293      16.35041817       0.00001596       0.00027348      -0.00014586      -6.44466301
O        2.61542873      18.57466688       4.01039419      -0.00016925      -0.00018915      -0.00008214      -6.71875419
O       16.58728530       2.12049528       6.37308514      -0.00021942       0.00013230      -0.00013188      -6.51674987
O        4.32938137      18.55558243      10.06913438      -0.00012587      -0.00046371       0.00020852      -6.39304730
O        8.33717596       9.06829307       4.13539911      -0.00055139       0.00002771       0.00014573      -6.51736657
O       13.31400287      13.22318179      13.13751872      -0.00011008      -0.00010684      -0.00003475      -6.41528473
O        8.89823261      10.54347796      11.69517787      -0.00024101       0.00031017       0.00049898      -6.80419750
O        6.30082439      13.64400516       8.19972717       0.00037512       0.00001309       0.00042312      -6.92611357
O        2.01953694       2.23562724      15.54844834       0.00002356       0.00005186       0.00031968      -6.40704369
O       19.10702213      21.37217548      17.07152722      -0.00017831      -0.00010043      -0.00023377      -6.53240717
O        0.70321222      15.46611850       7.01899464      -0.00005883      -0.00002914       0.00024909      -6.50090584
O        1.55530054       2.11039634       1.17068156      -0.00008302      -0.00002595       0.00035533      -7.06910626
O        1.70648168       9.68621758      10.61872343      -0.00007191      -0.00008667       0.00048354      -6.27590465
O        8.11320634      15.45373376       9.17787962       0.00014072       0.00009794       0.00011657      -6.58496219
O       13.84717402      15.15785229       3.59569608       0.00013343      -0.00008244      -0.00015185      -6.24427760
O        8.15515251      18.09656799       1.84061213       0.00013628      -0.00001478       0.00029159      -6.53229248
O        6.87802252      15.20132935       5.52082840       0.00009442      -0.00029262       0.00009667      -6.77068443
O        4.99551822       0.04407951      20.65303607      -0.00016729      -0.00012498       0.00016987      -6.40377880
O        7.37370287      12.31567436      10.48609403      -0.00019552       0.00004995      -0.00014904      -6.36049147
O        4.05653993      12.00762969       9.37881775       0.00013506       0.00018818       0.00034502      -6.57484005
O        2.84673431       4.50734089       7.96120253      -0.00002147      -0.00009275       0.00017185      -6.22357343
O       15.35616080       6.59978051      17.08358844      -0.00016163       0.00002051       0.00015851      -6.37016636
O       10.39280212      13.25128640      10.58594515       0.00016847      -0.00009907       0.00003857      -6.50085392
O        0.10807405      12.94346323      18.53019653       0.00049756       0.00001490       0.00035589      -6.71604693
O        8.90519300      11.51631083       5.16290210       0.00007167       0.00006051       0.00013941      -6.45294806
O        2.05583847       9.50333298      16.90883440       0.00039952       0.00005876       0.00006513      -6.23703250
O        5.75612347       9.46192924       9.12939128       0.00010315      -0.00039228       0.00016826      -6.48019155
O       21.33782062       9.98006127      18.44289731       0.00024250      -0.00008797       0.00008613      -6.61264915
O        7.48391509       2.13099876       1.58100677       0.00014293       0.00040131      -0.00007032      -6.73071352
O        5.75908924       2.71969305       3.60809542       0.00006151       0.00052866      -0.00045763      -6.44579840
O        1.59944347       9.46966537       2.45605220      -0.00011112       0.00005180       0.00004960      -6.23127849
O       11.63092053       6.96214927      17.19827359      -0.00027163       0.00009675      -0.00014436      -6.32094578
O       19.03428072      11.56850885       9.30943034       0.00041848       0.00024156      -0.00001726      -6.45961167
O       15.85276065      20.17415899      20.66596958      -0.00019710       0.00019612      -0.00005444      -6.82995077
O        4.72767657       2.86449099       5.93464329      -0.00018756      -0.00017867      -0.00025413      -6.38453042
O       12.40759568      16.45578111      20.59631568       0.00014222       0.00010988       0.00029716      -6.04785486
O       12.80428705      19.06022149      20.87613986      -0.00038095      -0.00014135      -0.00000700      -6.36671444
O       21.17291218      20.04933851      18.71520199       0.00021949      -0.00026396      -0.00009731      -6.64913530
O        2.81692054      20.85555796       1.22089446       0.00001829      -0.00040996       0.00000473      -6.70767870
O       21.20581000      20.12277449       0.15645808       0.00008670      -0.00003353       0.00007691      -6.50578549
O       12.19796521      18.55307330      11.77883525       0.00034517       0.00029406       0.00013678      -6.47652923
O       11.89724462      17.90825408      16.65575916      -0.00032353       0.00026057       0.00027378      -5.95966645
O        5.07544949       5.72842625      13.23249852      -0.00007462       0.00017040       0.00023073      -6.47885862
O        6.72886329      17.68484441      15.76768785      -0.00005933      -0.00057335      -0.00026118      -6.37526087
O        6.79624913      18.71000013      10.94211739       0.00025465      -0.00009508       0.00006704      -6.50656591
O       13.05399367       7.88727644       7.94090391      -0.00008622       0.00007980       0.00013872      -6.67532699
O       13.27865999       0.91003165       6.52115436       0.00008583      -0.00017475       0.00009469      -6.92124064
O       18.28186463      13.21119175      17.81636176       0.00039275       0.00016289      -0.00002827      -6.62896102
O        4.93793795       8.81808351      16.69844356      -0.00010655       0.00017737       0.00021998      -6.54784659
O        9.65652245       8.43883916       1.01247287      -0.00008566      -0.00032741       0.00005817      -6.45630434
O       14.98029688      20.74163785      13.43542133       0.00006932       0.00004714       0.00006726      -6.49987886
O        2.20933247      15.62147558       4.16131148      -0.00010800      -0.00009741       0.00017110      -6.63741020
O       20.97752653       0.73905702      12.36032102      -0.00029980       0.00003484       0.00018013      -6.16085710
O       16.12579764       7.70547054      19.35525841      -0.00040441      -0.00020031      -0.00019536      -6.40803884
O       11.01988800      19.07833301       1.91628757       0.00026855       0.00022601      -0.00028992      -6.46266698
O       10.49648519       6.53851312       9.68349579      -0.00035351      -0.00025310       0.00010554      -6.48115232
O       14.11744954      13.18144710       5.32537115       0.00004595       0.00015997       0.00024246      -6.45634755
O       10.97466413      14.04545512      20.89834030      -0.00022426      -0.00024931       0.00006381      -6.58696762
O        8.09537141       6.19662981      12.80087467       0.00003779      -0.00027432      -0.00015604      -6.47679546
O        9.64994563       9.28310575       6.68230912      -0.00001313      -0.00018010      -0.00029543      -6.80459347
O        2.33815328      17.30568678      17.77879968       0.00043386      -0.00070119      -0.00036948      -6.48376659
O       17.13495247      19.61847668       7.47430990      -0.00020423      -0.00012480      -0.00035422      -6.44442164
O        3.19316310      19.56288661       7.80893100       0.00030724       0.00004821      -0.00009504      -6.19422653
O        5.82416747       4.39638364       7.85169781      -0.00016550      -0.00005141       0.00004912      -6.52863382
O       12.84444873       7.51003555      11.00750579       0.00039596      -0.00006017      -0.00029594      -6.55559326
O        6.91853590       1.16307888       6.33201483       0.00000429      -0.00025992      -0.00005098      -6.52114786
O        8.56854399       5.12328731      10.51782770      -0.00009515       0.00008281       0.00017184      -6.35029199
O       19.03288332      15.85478585      17.76850368       0.00014443      -0.00001225      -0.00011330      -6.36059744
O       13.54917364       8.31921252      16.06810757      -0.00011852      -0.00040426      -0.00009283      -6.36586900
O        0.76957921      17.27078213      11.85192355      -0.00016233       0.00002223       0.00021290      -5.75565781
O       21.02165153      11.16538009      11.02458862      -0.00028448      -0.00017919       0.00031655      -6.67797603
O        1.56168135      20.04480572      14.81774914      -0.00021621       0.00006550      -0.00043795      -6.37522457
O       16.86221800      18.41907496      18.14917120      -0.00015426      -0.00019361      -0.00016224      -6.63822275