768
Lattice="21.68318616 0.0 0.0 0.0 21.68318616 0.0 0.0 0.0 21.68318616" Properties=species:S:1:pos:R:3:forces:R:3:energies:R:1 Time=4199999.99965759 energy=-7700.573597551558 virial="-101.35147787 30.10305456 23.3458785 30.10305456 -6.71648845 -6.5925123 23.3458785 -6.5925123 -68.09957633" stress="-0.00150208 0.00295231 0.00228961 0.00295231 0.00777909 -0.00064655 0.00228961 -0.00064655 0.00175904" pbc="T T T"
O        6.71221747       5.12897385       0.65115728      -0.00020273       0.00038774       0.00049545      -6.43759174
O       18.21524701       5.57872730       7.45825266      -0.00008576       0.00028568       0.00006899      -6.63653074
O       11.23105822      13.64277519       5.39889662      -0.00011273       0.00004588      -0.00026796      -6.67155233
O       10.55894898      20.48183459      12.33759176       0.00040698      -0.00037752      -0.00010845      -6.45384754
O       17.02064905       1.07278090      18.76654267       0.00003160       0.00014526       0.00036718      -6.66378672
O       11.08954768      19.10618238       3.86087898       0.00008747      -0.00052471       0.00018549      -6.45691785
O       10.46294707       3.33264221       7.28537546      -0.00026665      -0.00005858       0.00002510      -6.27840586
O       14.03117355       0.21610612       7.34669734       0.00000942       0.00024758       0.00016290      -6.59726750
O       19.21547399       1.84959657      12.21883092      -0.00020816       0.00007899      -0.00035967      -6.42286344
O       20.26155920       7.37064121       0.47170728       0.00048022       0.00000279       0.00009270      -6.50235716
O       20.53817887      11.48490226       9.65612569       0.00006108      -0.00053108       0.00003681      -6.46661254
O        5.77487868      12.83797833       1.78602072       0.00001629       0.00012512      -0.00008346      -6.60695545
O        8.30433442      14.37446840      19.83492589      -0.00028980       0.00053578      -0.00003463      -6.62770383
O        8.45557017      10.01477465       1.06739746      -0.00005128       0.00026316       0.00002136      -6.32076764
O        3.64317326       6.91604475      14.09562756      -0.00001739       0.00011932       0.00004251      -6.70817225
O        4.09743697      15.11764104      15.54805090      -0.00008324       0.00002617       0.00002364      -6.87713658
O       11.10387879      14.62012820      10.57218809       0.00011388      -0.00005623      -0.00026568      -6.48820575
O       12.46867205      16.54806440      21.07830236      -0.00032763       0.00037422      -0.00018141      -6.86664256
O        5.28037496      10.05274695      13.75406183      -0.00010185      -0.00003227      -0.00035046      -6.42678411
O        6.65536754      15.74767906       3.57321764      -0.00014062       0.00026466      -0.00024275      -6.83551631
O       13.77111166       2.38076505       5.10430896       0.00021878       0.00030190       0.00008463      -6.60460851
O       14.37739923       5.10546266       7.26658372      -0.00019864      -0.00002579      -0.00031009      -6.14658871
O       20.55330975      20.58454084      15.31926511      -0.00002613      -0.00001521       0.00017605      -6.41172081
O        7.04232981      14.87389934      14.85825003       0.00005261      -0.00007233       0.00012219      -6.45738722
O        6.56272007      11.64758308      16.76536184      -0.00028141       0.00000797       0.00003069      -6.43617242
O       11.77204360      12.07868567       3.24240814      -0.00041078      -0.00007942      -0.00015295      -6.41881018
O       14.79229630       5.41034637      -0.13638417       0.00023652      -0.00021029      -0.00044024      -6.97455089
O       21.21333574      17.33124579       1.04926042      -0.00014091      -0.00020595       0.00003167      -6.49236253
O        0.21090379      13.39399712      14.71474981       0.00021497      -0.00016615       0.00004324      -6.79323064
O       15.21462644      10.59685482      12.21945453       0.00034461      -0.00018101       0.00021605      -6.73469076
O       16.85840944       8.46663936       1.77165058      -0.00018848      -0.00007788       0.00017983      -6.72578512
O       11.07614022      10.38698836       0.03056442      -0.00018245      -0.00029064      -0.00012347      -6.32588527
O       10.97047790       2.33194568       3.43108046      -0.00031786      -0.00004355      -0.00006361      -6.57820383
O        7.16485859       3.53483005      15.06184738      -0.00008291       0.00004251      -0.00004347      -6.61511776
O       11.73412388      11.71790520      10.61182405      -0.00029179      -0.00012088      -0.00049390      -6.18477155
O       14.84794190      19.92865016      15.39066617       0.00041840       0.00019174      -0.00011177      -6.41798839
O       20.59983647       1.29111000      -0.01898574       0.00007947      -0.00039212      -0.00012459      -6.29036255
O        5.21526119      21.29987518       4.40118365      -0.00001357       0.00015393      -0.00019417      -6.82185652
O       19.12296510      20.43165453       5.00277020      -0.00024441      -0.00045379      -0.00034885      -6.35974773
O       12.75687286       1.97165961      15.76316201      -0.00002093      -0.00003602       0.00028920      -6.54066784
O        3.56585580      16.43686575       8.55744528      -0.00033782       0.00009435       0.00014424      -6.94075100
O       13.65031047       1.29078656      13.19059729      -0.00011315      -0.00004573      -0.00001366      -6.63731857
O       15.72742237       9.67489714      17.82557668       0.00033635       0.00000097      -0.00017248      -6.10548206
O       16.71583845      13.97484642       3.55395514      -0.00001646       0.00028200      -0.00002118      -6.56477407
O        0.29250438       6.35752775      17.63574977      -0.00010477      -0.00011663       0.00013017      -6.62079990
O        9.27429498      20.80761285       8.79833541      -0.00051184      -0.00038702      -0.00025108      -6.14258039
O        9.15420776      12.36146796      17.53636158       0.00000430      -0.00007245      -0.00003796      -6.51953631
O        9.02386630      14.78084466      16.77717615      -0.00060577       0.00001406       0.00013277      -6.34418550
O        2.26953904      15.59136500      11.23278678      -0.00016684      -0.00010283      -0.00037060      -6.60057611
O       17.81300390      16.88753009       6.26883901      -0.00013062      -0.00008407       0.00012253      -6.72070814
O       20.45187355      15.86783331       6.93773356      -0.00004818       0.00017114       0.00035352      -6.75724218
O        2.05960690       5.94603106      10.63064191      -0.00023914       0.00014810      -0.00022394      -7.01051524
O       18.96639182       4.36178732       4.26562334       0.00029479       0.00025441       0.00024911      -6.72866050
O       11.97348500      11.10999654      13.59291879      -0.00038457      -0.00006106       0.00020266      -6.61746750
O       11.90838687       0.26594214      20.56554851       0.00006990      -0.00016314      -0.00000518      -6.35205992
O        9.09489646      17.94244471       1.86718050      -0.00005001      -0.00024748      -0.00009179      -6.37443776
O        9.03764710      20.19869105      16.24075454      -0.00001238      -0.00009635      -0.00018672      -6.22336557
O       -0.15295937       6.72970721      11.66483192      -0.00023299      -0.00004963      -0.00024897      -6.58082606
O        5.19700560      15.61635752       6.13659285      -0.00003344      -0.00040604      -0.00011810      -6.37807819
O       11.87976981      17.65918697       7.90138606       0.00002369      -0.00016621      -0.00019691      -6.28227219
O        8.40894561       0.34304422      20.07263122      -0.00037386       0.00006080       0.00018003      -6.64458223
O       14.81062409      14.29858715       0.77944175       0.00018373       0.00002348       0.00011837      -6.87330033
O       14.27373852       7.16178202      16.39533848       0.00014101      -0.00031340       0.00036787      -6.59894947
O        3.45482024       8.89150982       3.42040765      -0.00039300       0.00020244       0.00007556      -6.26298249
O       14.65209542       3.89610716      16.36184240       0.00011396       0.00007193       0.00011691      -6.63477957
O        7.19659434       5.68799507      19.78240794       0.00014283       0.00011019      -0.00038557      -6.16157818
O       16.13227581      12.00749222      16.91078820      -0.00003389      -0.00027463      -0.00035557      -6.19184646
O        5.45639753      15.04773667      21.51528378       0.00004424      -0.00018179      -0.00005101      -6.42541050
O       17.66981898       5.98591610       1.50518161       0.00013053      -0.00019147      -0.00010359      -6.62696169
O       11.09993009      13.29362581      15.26597975       0.00040912      -0.00008148       0.00010714      -6.58921663
O       16.37281377       1.45066767       5.77775507       0.00034703       0.00004028      -0.00004157      -6.54839836
O        4.88692218      16.30648171      12.73249802      -0.00005096       0.00040286       0.00022748      -6.77080487
O        6.86327351       7.33196956       7.49549968       0.00018815       0.00001300       0.00035339      -6.39123214
O        4.82430764       8.35701034      11.69194283       0.00010756       0.00001506      -0.00002625      -6.59432656
O        8.96084667       5.06127636      13.12229129      -0.00011212       0.00019782      -0.00007244      -6.58697842
O        9.79155385      17.99412608      15.48560852      -0.00022063       0.00005051      -0.00009919      -6.15136290
O       11.05312389       7.93187598       8.33009701       0.00033871      -0.00030678      -0.00036069      -6.45539940
O        0.54725257      21.08328550       7.39954556      -0.00024933      -0.00008310      -0.00022606      -6.63484998
O        9.67729201       1.06691701      17.29467797       0.00019293      -0.00000845      -0.00005719      -6.30748580
O       11.95764012       5.20716108      20.75298804       0.00013893       0.00009422      -0.00000379      -6.44572016
O       19.01759834      11.25596858       7.04475395       0.00022060       0.00010199      -0.00013335      -6.38931645
O        7.84989323      14.19787142       1.21692575       0.00008927       0.00005404      -0.00001881      -6.09103489
O        3.53546241      18.28156627      14.34047428       0.00019557       0.00017655       0.00034803      -6.76310337
O        8.69101233       6.69802053       5.45019024      -0.00005765       0.00006613       0.00000991      -6.17619628
O       19.25437574       6.65256669      16.67982784      -0.00015599      -0.00034835      -0.00012893      -6.58251200
O       17.73876143      13.82802455       6.27098672      -0.00020348      -0.00025740      -0.00017585      -6.33735302
O       11.79904408      17.49723186      17.06635884      -0.00003377      -0.00068709      -0.00030966      -6.04307736
O       16.59822460      20.61997900      17.33392936      -0.00010347       0.00040899      -0.00020751      -6.46516647
O       18.13344444      11.73055424       3.42750675       0.00003285      -0.00015846       0.00029856      -6.80191855
O       12.23161390      15.55106663      13.36357285      -0.00011254       0.00003440      -0.00017602      -6.59336971
O       15.32422513       0.96159082      16.07305973       0.00047371       0.00007235       0.00013016      -6.55213992
O       18.65437054      19.61034420      11.83029108      -0.00035092       0.00007093       0.00005834      -6.23277558
O        3.33468934      13.02237940      21.46568291       0.00004488       0.00019336       0.00025269      -6.50710899
O        1.77928450      14.87545209      17.17196790      -0.00049236       0.00011099      -0.00000957      -6.73976621
O       21.56586518       8.33446948      14.88663819       0.00040649      -0.00037314      -0.00012255      -6.83918670
O        9.20384038       6.73709821       1.08389062       0.00016741      -0.00044496      -0.00035462      -6.57208339
O        7.02647509      16.73124932      20.03046750       0.00036294       0.00002420      -0.00001514      -6.30334123
O       10.04368974       2.89168793      14.78190188       0.00016135       0.00009310       0.00003346      -6.67848698
O       11.73574454      20.24530232       7.54544960      -0.00026225      -0.00001199      -0.00046070      -6.25293229
O       18.45341354      14.57799150      19.02918797      -0.00025773       0.00005434       0.00005726      -6.48586711
O       17.60410326       8.63835039      19.85203912       0.00042951      -0.00001566      -0.00009117      -6.74672915
O        1.40715018       7.53737673       8.46200078       0.00004913       0.00017878      -0.00007296      -6.53837916
O        5.21240552       0.32202601       1.04477861       0.00015918       0.00002378      -0.00032728      -6.32977927
O        0.67273616      20.19263928      18.02294579       0.00027387       0.00009919       0.00011020      -6.73080655
O        7.11693301       5.54878143       9.58756603      -0.00010706      -0.00017278       0.00011920      -6.37680344
O        8.24506242      12.61890499      14.82636081       0.00003908      -0.00017131      -0.00004012      -6.29248083
O       18.12035963      11.47376923      18.95440090       0.00019709       0.00013363      -0.00028658      -5.93289322
O       16.75661472      11.27491469       5.64587732       0.00025011      -0.00013965      -0.00006363      -6.43719574
O       20.65346695      15.44768403      13.10773730       0.00029888       0.00024377       0.00010415      -6.54654748
O        7.98709694      18.56161880       8.57604137      -0.00022763      -0.00029290      -0.00005036      -6.46237152
O        3.07153186       7.42841328      19.18299839       0.00007457       0.00010194       0.00000426      -6.49343512
O        0.75345251      18.34818258       9.19281429       0.00053661       0.00015477       0.00009190      -6.70077818
O        6.37375666      18.24644250       4.80809211       0.00011499      -0.00004347      -0.00001661      -6.73467699
O       17.83091206      10.42497467      11.61574125       0.00033746       0.00006219      -0.00001580      -6.83312930
O        2.05228393       5.63137108       5.08552782      -0.00003409      -0.00011365       0.00039877      -6.27108772
O       11.70050617      16.95052623       1.88356656      -0.00014849      -0.00018061      -0.00015951      -6.85008878
O       21.64522856      17.17812805       4.37384149      -0.00005819      -0.00001451       0.00019575      -6.30700288
O       12.91701810       8.70850901       4.35547673      -0.00023154       0.00044549      -0.00010732      -6.18438727
O       20.65131477      12.66935580       2.23106264      -0.00027783       0.00016090      -0.00041729      -6.74322635
O       20.73653471       4.37427631      15.63186012      -0.00005497      -0.00008218      -0.00018697      -6.33880134
O       11.59452077      13.97728314       0.82090065      -0.00033465      -0.00025791      -0.00027668      -6.22951037
O       16.03649205      17.50394135      13.40421142      -0.00004414       0.00015760      -0.00017611      -6.33033822
O       20.23374574      12.69262821       4.87754879      -0.00002133      -0.00014721       0.00005260      -6.46983699
O        7.89911732       2.86531913       2.00955419       0.00021280       0.00053680       0.00019828      -6.30096242
O        3.77915753       0.82518389      11.00379351       0.00038709      -0.00006187      -0.00002806      -6.75416127
O        9.40581903       4.71179605      21.20119415       0.00008789       0.00015585      -0.00017031      -6.30214719
O       11.93741437       1.68080593      18.14014327       0.00006978       0.00023652      -0.00000696      -6.06549230
O       19.57833760      16.44287840      20.48064412       0.00022953       0.00019079      -0.00022283      -6.38086101
O       10.31489575       7.81502812      10.98102413       0.00011646       0.00012958      -0.00030455      -6.55681818
O       20.74766618       9.97027190       5.79005047      -0.00032253      -0.00012194      -0.00025455      -6.50362390
O       20.69293511      14.29808068      21.50978141      -0.00011271      -0.00006175       0.00004034      -6.51851766
O        6.96035591      10.98410799       7.67137135       0.00013994      -0.00002687      -0.00008049      -6.29423385
O       16.51780629      13.80416703      11.83241354      -0.00002649      -0.00019672      -0.00044739      -6.30778034
O       17.51484437       5.45827752      12.29002485      -0.00008341      -0.00016623      -0.00003114      -6.33025336
O        5.87047629      20.56229953      10.04884574      -0.00006752      -0.00001243      -0.00009659      -6.65071747
O       12.03882667       7.25302580      18.97506394      -0.00034815      -0.00001615      -0.00026463      -6.36202225
O        5.42549435      17.60808867      17.19563467      -0.00000642      -0.00012558      -0.00030468      -6.44740722
O       10.70007405       8.62337954      13.49634851      -0.00000164      -0.00036472       0.00025283      -6.62632267
O       18.39204956       9.60247605      14.71518193      -0.00001304      -0.00003703       0.00005648      -6.48148998
O        5.54053649       8.16990449      15.70431975      -0.00011625      -0.00044899      -0.00006293      -6.03975530
O       12.80963365      15.33003236      15.85879029       0.00049936       0.00036151      -0.00026991      -6.37435274
O       12.87077163      15.35490733       7.10843725       0.00006129       0.00003987       0.00006008      -6.36634466
O        5.24481987      19.19714117      19.88331164      -0.00040808       0.00010628      -0.00029002      -6.72145855
O       10.68509410      19.48679196       0.57773037      -0.00025361      -0.00014338      -0.00014844      -6.66741436
O       14.86557944       1.68973800       2.79887057      -0.00008775       0.00011291       0.00021355      -6.32931060
O        4.52397006       3.44351696      15.89158682      -0.00002253      -0.00033685       0.00011473      -6.66630099
O       19.43876743      18.21550811       3.56183030       0.00020696      -0.00018603      -0.00001782      -6.76170411
O       17.66394602       2.92230815       0.77039482      -0.00007013       0.00014232      -0.00028427      -6.28116259
O       13.63926869      18.85024004      11.86135248       0.00043690       0.00003030       0.00003359      -6.93865088
O        1.79186712      17.31554896       2.67989766       0.00012082      -0.00018145      -0.00027194      -6.44153200
O        8.20377643       8.07364742       3.24924537      -0.00019466      -0.00048878      -0.00001487      -6.35348801
O        9.96192151       4.42982701      10.11048523      -0.00013530      -0.00045822       0.00000760      -6.71083186
O       16.83026115      16.49860555       3.34526646       0.00003606       0.00013168       0.00017361      -6.15023381
O        8.73992886      19.55426113      18.77796004      -0.00000348       0.00038747       0.00011577      -5.83591360
O        8.19280594      -0.18355658      11.05329250       0.00040887       0.00008060       0.00013291      -6.32494859
O        5.18898822       3.44683779      13.20027686       0.00008080       0.00009344       0.00028587      -6.57403953
O       17.96546349       3.60806976      14.13818285      -0.00003325       0.00031087      -0.00025648      -6.75655105
O       19.77297946       8.58417166      12.51084564      -0.00009476      -0.00007177       0.00000403      -6.54422075
O       17.05108708      21.35014942      10.84016718       0.00008669      -0.00014940       0.00003339      -6.16357319
O       10.32956830      10.58868819      15.74038534       0.00043467       0.00006567       0.00012611      -6.65569128
O        7.05574814       1.04408597      15.75781268      -0.00001292       0.00028289       0.00009930      -6.93113969
O       21.27994841       0.91243946      10.86936630       0.00044619       0.00016594       0.00019045      -6.18636741
O       18.89969836       9.37710275       9.22365117       0.00018980       0.00034560      -0.00013143      -6.38047693
O       20.43463801       4.50501411      11.93473236       0.00003365      -0.00013358      -0.00010840      -6.77872207
O        4.08704125       0.71644248      14.76248141      -0.00003785      -0.00039307       0.00002444      -6.57223366
O       11.06097620      20.68519358      18.44355745      -0.00030133      -0.00011458      -0.00017930      -6.43148710
O        9.65637251      19.08248940       6.48707562      -0.00039064       0.00000737       0.00007101      -6.52250283
O        5.77210093      11.44366830      10.43176498       0.00005985       0.00023524      -0.00001266      -6.88004400
O       15.30712319      21.30355456       1.09425661       0.00012976      -0.00010772       0.00008394      -6.25407700
O       15.89062137       9.19947839      15.14286166      -0.00013291      -0.00035398      -0.00002586      -6.54179769
O       16.94839699       3.07566119       3.22608629      -0.00006110       0.00007143       0.00038155      -6.52158397
O        2.75242123      12.34917149      15.64290982       0.00035218      -0.00005270       0.00054978      -6.70296789
O        3.77239866      17.10932396      21.94059494      -0.00031392      -0.00030795      -0.00010068      -6.45852338
O        3.04880774      20.53585816      19.26141382      -0.00001128      -0.00029569      -0.00008968      -6.59830725
O       11.83864308       6.05244758      13.44040639       0.00032734      -0.00006638       0.00019674      -6.47027440
O        6.13323775       7.37379849       2.16012219      -0.00010049       0.00039966       0.00004743      -6.11826110
O       20.48548694       8.05773309       7.66425723       0.00013059       0.00033946       0.00006407      -6.25921698
O       10.32276736      13.91452537       8.26332313       0.00015794      -0.00000178      -0.00007061      -6.70397514
O       19.57459162      13.63418911      11.16287699      -0.00008366      -0.00008639       0.00013232      -6.70251544
O        8.11916363      12.47133582      10.06075771      -0.00026535      -0.00027175       0.00015554      -6.51014167
O       17.85136789       8.97810306       5.22471551      -0.00004056       0.00012384      -0.00011205      -6.29273527
O       13.13411509      10.20728382       1.94503050       0.00001660       0.00018054      -0.00005327      -6.57546601
O       10.47535745      10.16349577      19.03400557       0.00017592      -0.00011829       0.00010662      -6.64855570
O        8.83864542      17.50836370       4.52057753      -0.00065976       0.00001508       0.00040166      -6.59588513
O        0.79801823      19.55855977       4.84155998       0.00011385      -0.00033258       0.00008900      -6.24550212
O       16.46255302       2.25019760      11.09677983       0.00037203      -0.00012228       0.00005491      -6.60646266
O       15.43646118       7.29479288       5.62285464       0.00024681       0.00009157      -0.00028165      -6.76554714
O        5.62963157      19.84465946      14.90232754       0.00050678       0.00034156      -0.00004512      -6.49532106
O       10.91095868      15.16608915      18.61554484       0.00005463       0.00022926      -0.00006292      -6.52646630
O       17.82546292       0.36511280       0.27942015       0.00025043      -0.00033403       0.00016309      -6.42834810
O        5.84117812       8.53385320      18.57804609      -0.00033643       0.00021830       0.00027939      -6.37677841
O       11.65526787      19.86048620      16.01339844      -0.00003816       0.00019814      -0.00032396      -6.13237186
O       18.54406203      17.13954150      16.37226581      -0.00047455       0.00012625       0.00011513      -6.41251335
O       18.01970444       0.75409396      15.88974528       0.00013577       0.00012451       0.00030026      -6.50461270
O        9.45460911      11.50905022       5.22184367      -0.00009119       0.00004098      -0.00015550      -6.44684850
O        0.49632019      14.44438877       3.84717575      -0.00001675      -0.00032608       0.00003774      -6.16442288
O        0.82782420      10.48998718       7.78375847      -0.00038598      -0.00020555      -0.00013895      -6.64026231
O        7.39623266       0.74192781       7.49510263       0.00002269      -0.00031848      -0.00003148      -6.89154451
O       15.00009043      14.93085688       5.86650666       0.00014697       0.00017828      -0.00015108      -6.39337268
O        9.05826970       8.26920674      20.66641291      -0.00018136       0.00005269      -0.00022231      -6.32493790
O       19.60322656       6.24740826      14.14444605      -0.00027508       0.00004440       0.00015617      -6.67142024
O       19.99796745       6.44545416       2.91716949       0.00016234       0.00013938       0.00018676      -6.34615409
O       19.17858622      19.80104564      17.54482027       0.00001295      -0.00009942      -0.00025356      -6.55519162
O       11.55227275      20.10730678      10.01975326       0.00002740      -0.00009072       0.00021375      -6.56831669
O        5.80386798      21.82545621      20.17758818       0.00028166       0.00062209       0.00036775      -6.75437999
O        7.19589404       3.46528153      11.58618469       0.00032960      -0.00011351       0.00005930      -6.67022917
O       15.92824010       8.53882608      10.34385618       0.00007483       0.00027421      -0.00021729      -6.22689544
O        1.57324488      15.95107401      14.16637450       0.00001937       0.00022606       0.00013913      -6.41925486
O       16.47111093      18.30469448      10.16715429       0.00015427      -0.00003072      -0.00013308      -6.65342290
O       15.79894733       5.94405893       9.09823332       0.00002573      -0.00027306       0.00030977      -6.22124625
O       10.65745524       4.39022492       1.60851432       0.00022922      -0.00010783       0.00033016      -6.64380444
O        4.35028780      14.17723074      10.49633365      -0.00013623      -0.00015943      -0.00038976      -6.92730593
O        1.40074691       9.51047504      20.06183332      -0.00042663       0.00012228      -0.00026236      -6.14416949
O       10.38837181      12.41690618      20.52498589       0.00038765      -0.00006096       0.00013987      -6.27134973
O        9.34668821       2.01928507       9.21624855      -0.00020780      -0.00036856       0.00022114      -6.25454969
O        4.09640419       8.42087179       6.81536674      -0.00039335       0.00003818       0.00026169      -6.48505058
O        8.68823176      17.24920177      17.63070091      -0.00011231       0.00000537      -0.00018165      -6.48631001
O        4.64530060      20.06144761      12.53252061       0.00018253      -0.00017439      -0.00002051      -6.55154936
O       19.91272964      20.54452604       2.21097617      -0.00003665       0.00017044       0.00010154      -6.40602670
O        8.02580920      12.09625162      21.49144551      -0.00009468      -0.00028821      -0.00021043      -6.07701909
O        0.17995701       1.01758749       2.47758678      -0.00002261       0.00003316       0.00017280      -6.49120164
O        9.61868537       6.11410911      19.10915371       0.00016389       0.00002010      -0.00046723      -6.29868836
O       13.31402445      14.90376344       3.14686327      -0.00020639      -0.00011155      -0.00050742      -6.26620745
O        2.81247612      15.93156396       4.64945726      -0.00004774       0.00004649      -0.00007129      -6.73811014
O        8.55278857       4.93498173       3.51652994      -0.00026692       0.00043651      -0.00010726      -5.89077306
O        6.25977945       2.22553122       9.62093271      -0.00039456       0.00015695       0.00058545      -6.57420443
O       17.27100150      16.11814448       0.04505401       0.00002610      -0.00047737       0.00000914      -6.78939461
O       17.67774414      19.51368232      15.13833460      -0.00002082       0.00015091      -0.00025152      -6.42329965
O        5.43269614      12.54375346      14.42423680       0.00003119      -0.00016046      -0.00012906      -6.52712903
O       19.69583053       5.73224454      19.28569799       0.00009278       0.00002322       0.00019522      -6.87590382
O       18.42909137      21.47592622      13.49157347       0.00040113      -0.00016275       0.00013150      -6.17249435
O       21.43027642       3.34482649      18.15426144       0.00001340       0.00024344      -0.00010812      -6.47485537
O       20.56200998      11.18029848      12.76220282      -0.00012844       0.00023700      -0.00000579      -7.07141565
O       16.87539150       0.32849610       8.13688450      -0.00031775      -0.00014936      -0.00005094      -6.44879623
O        8.81004648       9.11514056       8.69765553       0.00018950      -0.00020506       0.00028628      -6.02541042
O        3.32703652      11.49173064      11.85306413      -0.00014601      -0.00008690       0.00039918      -6.95221722
O        6.61032873      13.97097606      12.35619936       0.00025483       0.00017782       0.00010568      -6.78259392
O       16.13904050       4.30236369       5.54203654       0.00038458       0.00012822      -0.00015760      -6.39963128
O        0.60733985       9.89719891      17.56350562      -0.00027286       0.00054471      -0.00012518      -6.37386517
O       13.46055577      14.73303285       9.53068398      -0.00033294       0.00034038      -0.00033307      -6.45510197
O        3.62954484       7.91596643       0.66340962      -0.00019237       0.00010018       0.00029685      -6.33738422
O        6.06550308       0.98396731      12.80733295      -0.00008227       0.00010280       0.00016451      -6.73156838