768
Lattice="21.6221453 0.0 0.0 0.0 21.6221453 0.0 0.0 0.0 21.6221453" Properties=species:S:1:pos:R:3:forces:R:3:energies:R:1 Time=29500000.00422735 energy=-7708.640369587969 virial="-87.98508091 -15.82761771 -7.01308226 -15.82761771 -39.63331678 -21.66691114 -7.01308226 -21.66691114 -30.87063174" stress="-0.00084758 -0.00156579 -0.00069379 -0.00156579 0.00393574 -0.00214345 -0.00069379 -0.00214345 0.00480261" pbc="T T T"
O       19.57090315      11.56608730      18.74618509      -0.00060840       0.00033580      -0.00009710      -6.43411839
O       17.37499165       6.18749250       3.28022574      -0.00031388       0.00008081      -0.00022757      -6.37097307
O        6.87332031       2.59567145      12.95936147      -0.00034859       0.00027517      -0.00011541      -6.69814557
O        9.92919024       8.31427983       3.95728136      -0.00001786      -0.00008970       0.00012827      -6.58181340
O       -0.25155754      20.56078610      15.53734610       0.00019161       0.00002214      -0.00013672      -6.55364779
O       18.50674989      17.90021659      20.30278793      -0.00005673       0.00058081      -0.00021627      -6.36963653
O       19.78298258      18.22942305       6.46512767      -0.00016443      -0.00022670       0.00013156      -6.37417046
O       16.26021848       1.95366465       1.83798925       0.00008304       0.00007533       0.00042396      -6.31187850
O        3.58545032      20.25280172       7.42030693      -0.00005814       0.00005985      -0.00017495      -6.60030477
O       18.99848394      12.32770867      21.56425234       0.00000802       0.00027021      -0.00002374      -6.67194840
O       15.04640867      17.93469688      17.99111208       0.00007344      -0.00035821       0.00014520      -6.33945857
O        2.73405981      10.58546566       3.20175775       0.00000809       0.00069753       0.00001914      -6.25067123
O        8.68561962      21.13473255      10.20348420       0.00032738      -0.00013655      -0.00017105      -6.64865896
O       15.35472147      10.87811511       9.52460467       0.00049155       0.00012456       0.00026284      -6.71081464
O       13.95818724      16.13414123       9.61261880      -0.00056670      -0.00051358       0.00010264      -6.55356106
O       11.60239461       7.07459249      19.70242626       0.00009682      -0.00026637      -0.00022408      -6.29195908
O       11.21063331      19.79055488       8.01304909       0.00007304      -0.00000948      -0.00016407      -6.57749656
O       13.08600368      13.28206802       9.32839359      -0.00019433       0.00035202       0.00046219      -6.77458130
O       19.73937667      15.05711173       0.14495321      -0.00028114      -0.00031651       0.00003781      -6.73931681
O       20.32727763       3.78745217       1.84506528       0.00034390      -0.00027098      -0.00016922      -6.46225041
O        8.49809154       2.42525292       8.07859689       0.00005818       0.00059449       0.00031005      -6.54722756
O        6.62882641      10.53379274       3.38154269       0.00035175      -0.00005076       0.00005653      -6.23344009
O       10.50757664      15.04409195      11.00706904       0.00058752       0.00008245       0.00012897      -6.60192342
O        3.66619934       8.24861178       8.55364799       0.00012410      -0.00006424      -0.00001072      -6.69251682
O        9.99682337       6.35668970       0.18822182       0.00035306      -0.00003899      -0.00003996      -6.50941630
O        1.19057070      15.65097532       1.29570457      -0.00019178      -0.00025096       0.00045883      -6.70836110
O       10.28854655       2.91899252       2.56808902      -0.00017607      -0.00006637       0.00026796      -6.32860802
O        6.95338919      10.76521653      16.86546329      -0.00016020      -0.00024002       0.00038073      -6.30955956
O       20.25648170      19.25243788      10.20335883      -0.00000868       0.00009656      -0.00014218      -6.46038140
O        4.00526990      18.30748650       0.93810647       0.00003825       0.00020485       0.00029527      -6.61290224
O       18.94772154      20.63789737       6.66976938       0.00033017      -0.00011251       0.00007281      -6.45213602
O       19.34758725      15.96368392       5.04127640       0.00027672       0.00000762       0.00006476      -6.78045811
O       14.18876990      17.94218429       4.20742447       0.00048321       0.00055954      -0.00023538      -6.95072038
O        1.14791721      10.92006246      10.64893234       0.00021052       0.00003052       0.00000274      -6.63395777
O       13.15475373       5.06207072      19.41491412       0.00010466       0.00020975      -0.00046626      -6.48595081
O        0.77969745       0.91205528      11.19437570      -0.00029280       0.00022006       0.00021103      -6.62114832
O        7.50390360       0.82992722       5.29661117      -0.00010729      -0.00007137      -0.00048741      -6.72263541
O       13.62342044      18.03523729       7.07609964       0.00026219       0.00001424      -0.00012522      -6.39451174
O       17.60179506      16.89251925      15.62985993       0.00001346       0.00024605      -0.00019388      -6.49406811
O       12.49750465      19.23000389      18.25355430      -0.00017911      -0.00011948       0.00015617      -6.14564030
O       15.57801567      11.82615075       6.71552150      -0.00070542      -0.00008649      -0.00027172      -6.55204380
O       15.31644234      14.78493710       7.50273906       0.00023035      -0.00011482      -0.00017057      -6.64584020
O        6.55005562       0.74287370      21.01219957      -0.00000209      -0.00024258       0.00009658      -6.58554070
O       17.99855652       4.24010016       0.91297013       0.00006784      -0.00006564       0.00018384      -6.37208216
O        6.31306699      15.53338512       4.92148833       0.00013663      -0.00021464       0.00001100      -6.17430481
O        5.95333325       6.79418809       7.47045843      -0.00054167      -0.00009655      -0.00027025      -6.40889986
O       11.17283301       8.39165433       6.13740472      -0.00022301       0.00009742       0.00039522      -6.24977607
O       10.44131835      14.32632820       3.47834078      -0.00030044      -0.00010046      -0.00020654      -6.26351381
O        5.05847624      20.48750909      13.91179850      -0.00015205      -0.00011879      -0.00018511      -6.39894454
O       19.82305497      11.80890741      14.23331989       0.00025824       0.00035195       0.00016562      -6.48119061
O       16.45165324      14.55096068      16.17985678       0.00012356      -0.00022283       0.00023705      -6.91005725
O       12.88976742       4.90258616      10.75248583       0.00011896       0.00037881      -0.00018034      -6.72548932
O        2.67370293       1.84935960      16.02752401       0.00004229      -0.00001261       0.00008153      -6.65059381
O       16.71173478       3.75472951       3.71700645       0.00028837       0.00020357       0.00025228      -6.08960919
O        9.20429921      17.75492862      19.83617862      -0.00021847      -0.00008712       0.00016835      -6.48750251
O       16.15926253       9.51076310       1.19476182      -0.00020981      -0.00028521      -0.00031712      -6.57898735
O       15.28852959      20.82056638       3.67988785       0.00009662      -0.00026507       0.00017362      -6.49549997
O       14.69221370       4.42617751      12.71197680      -0.00021778       0.00027672       0.00015258      -6.78928408
O        1.19033037      14.88117327      10.24951122      -0.00005489      -0.00052380       0.00016703      -6.75669170
O       14.12184912       0.30487358      19.53649941       0.00018510      -0.00019420       0.00010724      -6.59127817
O       18.15948678      15.43253680       7.90106171      -0.00046013      -0.00013702       0.00009195      -6.33647482
O        1.02160009      14.91478969      19.69685885       0.00002528      -0.00011292      -0.00043092      -6.56895326
O       20.95139679       0.96681092      13.95624279       0.00011412       0.00038986       0.00017934      -6.66199639
O       12.17178474      16.93139780      20.12284620       0.00001497       0.00016372      -0.00042858      -6.66264347
O       20.07935790      16.28960612      16.83426899       0.00013018       0.00001733      -0.00021422      -6.59236397
O        9.25948735      20.02111350       1.74402777       0.00015321       0.00010302      -0.00011086      -6.62927624
O        2.63450797       1.13405172      20.15056638       0.00000098      -0.00005248      -0.00027787      -6.62401073
O       14.99208161       7.46663640       2.21610023       0.00003098       0.00004019      -0.00015619      -6.63807509
O        4.60488522       4.63538655      15.39329296      -0.00001657      -0.00044750      -0.00003509      -6.56427657
O       10.59420729       3.68722579      13.21810536       0.00006200      -0.00015950      -0.00012393      -6.45912663
O        5.86904714       0.57908648      10.51650849       0.00004856       0.00050860       0.00019174      -6.84059424
O        6.71844586      13.69791644      10.04015318      -0.00025713       0.00001091      -0.00009096      -6.43029928
O       21.47771933      20.84211634       0.85608554       0.00003000       0.00003088       0.00057864      -6.64531054
O       -0.02230526      10.36907369       1.40302126       0.00009357       0.00005801      -0.00027044      -6.36703674
O       11.96341384      10.46068400      16.71157637       0.00028377       0.00037001      -0.00009048      -6.61580605
O        2.91779732       0.51548662       9.42361577      -0.00001637       0.00012900       0.00026362      -6.69662439
O       19.94210270       0.63278145       8.73108520       0.00042599      -0.00005096       0.00008076      -6.37212049
O       12.58629335      12.96975172       3.10136929       0.00034544      -0.00014863      -0.00003671      -6.39910280
O        7.47116346       6.37394566       5.00553021      -0.00031097       0.00059532      -0.00023780      -6.40087250
O        2.99089693      18.07964235      14.58452895      -0.00027105      -0.00027814      -0.00009004      -6.63830836
O       13.62655695      13.87177629      17.78369196      -0.00032542       0.00011768      -0.00000336      -6.59584447
O       14.25652418       6.75178769       9.58316081      -0.00057023      -0.00017680       0.00038189      -6.58074977
O       13.79010807      20.81655956       7.09427564       0.00014604      -0.00006089      -0.00016935      -6.68096064
O        9.63152667       3.63398916       0.05648743      -0.00018322       0.00002045       0.00015487      -6.48262814
O       14.83505800       6.33096680      17.89209712       0.00030981      -0.00033285      -0.00005133      -6.71678371
O       12.96914964       8.01954046      14.72398404       0.00034986       0.00011431      -0.00001291      -6.80623479
O       20.33563923       5.57209069      15.60688900      -0.00001913      -0.00064437      -0.00007048      -6.75648179
O        6.52641610       5.86200895       1.75523935       0.00024077      -0.00003613      -0.00007978      -6.45275417
O        4.74538956       9.14640756      18.12415399       0.00022715       0.00023421       0.00001229      -6.26261343
O        2.54285740       7.17265900      15.12163043      -0.00008608       0.00025307      -0.00005619      -6.38482183
O       17.72439671       8.52405833      14.02787237       0.00021551      -0.00007952       0.00040677      -6.69473319
O       10.35332832      17.15178535      13.40815211       0.00020378      -0.00016376       0.00065014      -6.91724669
O       21.00288812      16.94375255      10.97605000      -0.00023875       0.00035381       0.00028930      -6.51489438
O       15.67390356       4.25531004       9.59419716       0.00040643       0.00004584      -0.00009519      -6.48314651
O       16.28548169      18.98687853      21.01434706       0.00018956       0.00000741      -0.00053985      -6.51847011
O        8.64990506       4.74694148      11.01086148       0.00016459       0.00037535       0.00021724      -6.56588662
O       16.72851683      11.43541811      15.43031830       0.00014048       0.00008773       0.00063224      -6.59674283
O       16.66062739      12.33579670      18.24072130      -0.00013940       0.00029927      -0.00005224      -6.83784652
O        8.33130257      12.15577509       8.17767801       0.00005107       0.00008990      -0.00023651      -6.27385063
O       17.86592106       7.03045128       5.95891928      -0.00017960      -0.00050006      -0.00005633      -6.69091208
O       15.16376020      14.52951929       2.21814999       0.00010438       0.00084650       0.00014512      -6.51124085
O        5.44682687       4.20718698       7.95805829      -0.00014185      -0.00016602      -0.00017264      -6.73267654
O       12.34324880       0.09432313      17.62974865       0.00003488       0.00019057       0.00003894      -6.34441973
O       18.83672637       9.19275354      20.30393473      -0.00001130      -0.00003040      -0.00006140      -6.08989997
O       18.88558597      14.36450430      18.71019514       0.00000558       0.00007271       0.00044466      -6.67278332
O        9.32813964      13.69665607      18.73442211      -0.00014541       0.00035953      -0.00027286      -6.31445164
O       11.80518529      13.95915746      20.13185601      -0.00006339       0.00002028      -0.00002247      -6.90959618
O        4.31287715       5.84154080       0.12058903      -0.00014964      -0.00035383      -0.00020308      -6.38707192
O        4.81299826       3.45199123      11.04240613      -0.00054770       0.00023403       0.00007415      -6.69172881
O       16.27961983      16.90758796       3.06338667       0.00001618      -0.00003348       0.00012111      -6.60943599
O        0.09650239      13.36338919       0.25786154      -0.00014101      -0.00034005      -0.00017310      -6.53226336
O       17.45315988       3.23896197      12.31595157       0.00020546      -0.00020884       0.00006845      -6.54859799
O       15.07535369       6.32262129       6.27131525      -0.00005802      -0.00016004       0.00000849      -6.34071871
O       15.44386297      18.07264024      15.11641033      -0.00010458       0.00013589       0.00026298      -6.63063049
O        4.51147846       2.35000459      14.01641357      -0.00003605      -0.00000171      -0.00006611      -6.56239767
O       15.43834555       3.18135662      18.03238692       0.00005170       0.00034182      -0.00009137      -6.77609262
O        5.15395406      15.28885323      19.87308869      -0.00028117       0.00037218       0.00022029      -6.66693720
O        9.46604008       8.69399570       1.26033747      -0.00000122      -0.00037783      -0.00007211      -6.27463589
O       20.55011135      10.75097428       9.06122218       0.00021773       0.00014828      -0.00001156      -6.88886377
O        3.70282373      15.67180432       9.35274981       0.00007557      -0.00006497      -0.00007810      -6.46495154
O       16.43530596      17.70692469       7.43399802       0.00036100      -0.00014925       0.00034919      -6.52789877
O       11.17077258      16.50006001       8.60682765       0.00000544      -0.00009966      -0.00053043      -6.52550437
O       13.16556299      13.09874809       6.19652872       0.00034539      -0.00008668      -0.00035040      -6.69618371
O       12.54837920       6.07776104       0.66844488       0.00001141       0.00051281      -0.00029051      -6.44265700
O       19.81491740       1.45884823      11.47308759       0.00013527       0.00019925       0.00007126      -6.47907581
O        2.09823237      16.20845811      17.76295230      -0.00012422      -0.00016006       0.00020518      -6.61762112
O        8.14461592       3.60035840       5.73631444      -0.00000419       0.00009874      -0.00019066      -6.10346303
O       19.89238221       7.51893897      18.39455348      -0.00009914       0.00025431      -0.00009229      -6.47810841
O        5.45174296      20.51111508       5.63156558       0.00007751      -0.00004624      -0.00035315      -6.68179418
O       10.75761229      10.68993040       3.37023048      -0.00009136       0.00010660      -0.00040862      -6.48134274
O        8.33064744      20.09673756      20.76026596       0.00003453       0.00009347       0.00011357      -6.89259611
O        1.70851192      19.66737125      12.55867656      -0.00033755       0.00032443      -0.00015121      -6.51909770
O       16.84957153      15.45915240      10.19283040       0.00003051      -0.00007421       0.00020953      -6.91436635
O       13.59912494       9.49662525      10.83558045       0.00004647       0.00009051       0.00015296      -6.43557225
O       10.48466435       2.75673762       5.14089567       0.00045785       0.00003956      -0.00015963      -6.65428444
O       19.48845198      19.43747685       0.41544974       0.00017731      -0.00026237       0.00000839      -6.38605777
O       18.63412745       4.21498211      17.33932798      -0.00043534       0.00024366      -0.00033876      -6.63891866
O        2.49513767      10.65081482      17.50138331      -0.00022168      -0.00003687      -0.00034760      -6.47523685
O        2.32520128       8.29850259      19.09589914       0.00043636       0.00015970       0.00033765      -6.50526167
O       11.72544330       5.14813432       3.05432405      -0.00026368       0.00031483       0.00032157      -6.02099507
O        8.71390555      11.13808718       1.67290816      -0.00012495      -0.00066900      -0.00014574      -6.41090200
O       12.97011829       8.53947331      17.99417732      -0.00022992       0.00012796      -0.00012907      -6.36322746
O       11.75721516       0.25735421      14.96752464      -0.00019768       0.00000254       0.00010321      -6.43444014
O        6.93518452       3.46550206       0.22114161       0.00051201       0.00011835       0.00003556      -6.68084431
O        5.43084349       3.21840567       5.44233149       0.00005641      -0.00007204      -0.00014218      -6.46385929
O       17.70012365       2.66421633      15.31161224      -0.00004750      -0.00005758      -0.00002599      -6.40134682
O       15.28608480      19.16109493      12.09436208      -0.00000026       0.00051394       0.00026697      -6.30681636
O        3.77256777       3.67644966      17.75392600       0.00000548      -0.00032548      -0.00001849      -6.29352204
O       10.53150683      10.93972608       6.98912943       0.00008981       0.00002439       0.00006847      -6.65582921
O       18.62707128       1.91915794       6.85996001       0.00042053       0.00012312       0.00000370      -6.41272732
O       15.07929619       6.24333669      20.83241169       0.00030048       0.00000068       0.00012981      -6.58767145
O       10.70527511       0.71612765      19.40396056      -0.00028048       0.00019402      -0.00001093      -6.59105058
O       14.02276665      15.99159920      15.51160491      -0.00003960       0.00028222       0.00022626      -6.66644277
O        1.28951428      21.08606207       5.87856883       0.00010062      -0.00023673      -0.00016601      -6.18672741
O       19.17998639       6.93582524      12.59268647      -0.00004337      -0.00020201       0.00021266      -6.49452879
O        6.48179766      12.79449749      18.94658627      -0.00016953       0.00038465      -0.00024328      -6.31566231
O       20.48065423       3.70083676      19.35508040      -0.00053802      -0.00011193      -0.00007766      -6.29930848
O       17.16953979      16.42291366       0.36384076      -0.00008073      -0.00056823      -0.00008189      -6.42943394
O        7.25043306      19.21597569      12.35057937       0.00008802       0.00037974      -0.00012976      -6.71295593
O       19.05710164       1.38461185      18.29336717       0.00023186      -0.00010868       0.00009853      -6.72096314
O       20.88826948       2.50399062      16.34882428       0.00001115      -0.00003338       0.00013725      -6.53787249
O       17.02297855       5.94344533      11.67122135       0.00034224      -0.00041683       0.00045288      -6.37843494
O        1.58006664      11.53965342      19.71670309      -0.00010321       0.00009396      -0.00042602      -6.67527439
O        0.52666656      15.49156583      15.64860502       0.00018131       0.00013351      -0.00019189      -6.59324810
O        3.81942365      16.83640485       5.39746764       0.00006123       0.00036191       0.00015258      -6.65197911
O       16.64158475       0.95790198      17.31107788      -0.00013131       0.00001499      -0.00020302      -6.52249655
O        8.48549577      12.76300358      16.41933071      -0.00034913       0.00010832       0.00038098      -6.45022726
O       17.99006954       5.12700913      14.27619504       0.00014025      -0.00028587       0.00018497      -6.63906098
O       18.18770067       4.49719016       5.50632939       0.00020639       0.00015699      -0.00002277      -6.16408186
O        3.14290721      13.69710638      20.86440753      -0.00049687      -0.00040086       0.00024774      -6.64780587
O        0.60142837       8.81499047       7.99712863       0.00019382       0.00009679       0.00015449      -6.77687838
O       10.00205761       3.19049118      16.46705787       0.00021282      -0.00030798       0.00001297      -6.71178285
O       16.01546385       0.17496504      11.44441049      -0.00001567       0.00005877      -0.00033917      -6.46142441
O        0.79378539       1.15184820       8.03610286      -0.00009688       0.00003979       0.00034251      -6.21306121
O        9.33126708       7.38643696      12.90706999       0.00044891       0.00001042       0.00006763      -6.60154955
O       19.16730049      14.54896420      15.17341456      -0.00029669      -0.00024292      -0.00013718      -6.34573553
O        1.42780175       2.78275788      18.67951574       0.00026612       0.00039294      -0.00018064      -6.55310735
O       20.36833956      20.39304396      12.45314562      -0.00008369       0.00004890       0.00023387      -6.38823188
O        3.29653900      21.23031634      17.71071958      -0.00059770      -0.00019821       0.00015202      -6.05350917
O        2.16237706       7.22721390      -0.03969031      -0.00022372       0.00010337       0.00024486      -6.52994696
O        4.52395682       8.62621673      20.63117582      -0.00028031      -0.00016655       0.00008104      -6.68087772
O       18.29594189      10.16254171      11.42152990      -0.00012731       0.00030937       0.00010839      -6.32825680
O        0.78041870       5.64167799       8.46049307       0.00031353       0.00013310       0.00030015      -6.47761309
O        2.21647774       2.92850560       3.63663998       0.00005645      -0.00011956       0.00002275      -6.35580095
O        2.98029815      20.27155031      21.02046536       0.00006489      -0.00006161      -0.00009590      -6.54157529
O       15.44170665       1.76852103       4.63374007       0.00046371      -0.00002099       0.00020049      -6.15468206
O        3.84106677      13.06653574      10.78752470       0.00010102       0.00032199       0.00001817      -6.70665773
O       17.52286036       6.33337431      19.17154959      -0.00018757       0.00033675       0.00006342      -6.60122933
O        1.16862357       7.46507398      10.84918129       0.00007103       0.00038841      -0.00013780      -6.64729596
O        3.81685822      18.48571275      18.36157651      -0.00004664       0.00007229       0.00024513      -6.59952422
O       11.06756580       4.34934323       8.69934814      -0.00017433       0.00007409       0.00009505      -6.59047685
O        1.58591940       4.74578482      15.93460869      -0.00013335       0.00025018       0.00048955      -6.66843470
O        7.36512584       1.08632536       2.27656801      -0.00002025       0.00031339       0.00004202      -6.83442169
O       18.90275033      14.73587979      11.44417892      -0.00001241      -0.00029475      -0.00019272      -6.46946799
O       15.40545505      18.12365854       9.75461643      -0.00004439      -0.00007691       0.00034209      -6.26427404
O        5.27855709      18.74176326      16.18596080      -0.00050297      -0.00053055       0.00033653      -6.10353477
O       10.28760746       9.21911200      20.49799388      -0.00030721       0.00003382      -0.00046051      -6.54137403
O        9.02964278      12.43871021      10.85628912       0.00023949      -0.00003467      -0.00028974      -6.60193968
O       20.20803271       8.50191188      10.36391773       0.00017626      -0.00001881      -0.00018082      -6.51910735
O        3.59554962      14.43290563       3.67443126      -0.00035222      -0.00010909      -0.00005768      -6.43338665
O        8.22460088      15.79782255      15.25408397      -0.00000112      -0.00006860       0.00007444      -6.39673170
O       14.12101317      11.78064426      19.61346102      -0.00004944       0.00006345       0.00005963      -6.52275091
O       15.82644283       3.75223287       6.47474371       0.00005297      -0.00021266      -0.00001455      -6.32565065
O        2.80805588       6.37635562       7.20449981       0.00014627      -0.00029353       0.00054899      -6.36840379
O        0.66452231       6.48453774      13.27175433       0.00027954       0.00006880      -0.00029519      -6.55505451
O        8.56657133      21.63580082       7.46677802       0.00016073      -0.00052658      -0.00010359      -6.37387915
O       18.66121134       8.70925420       3.75637186      -0.00048391      -0.00052132      -0.00009710      -6.35024051
O       12.28738269       8.38149620       2.12668935       0.00063389       0.00013956       0.00035069      -6.56619154
O        9.36697902       9.99082210      12.15244548       0.00000440       0.00003642      -0.00006445      -6.53141712
O        8.23175333       2.14955599      10.54369186      -0.00022853       0.00095042      -0.00006337      -6.09113212
O       12.88230310      19.44922583       1.74937118       0.00006579       0.00024733      -0.00030495      -6.34809941
O       13.33755551       1.64349018       2.55128068      -0.00000980      -0.00019030      -0.00004439      -6.64994014
O       12.96391265       0.48736011       5.16249269      -0.00010396       0.00017581       0.00005703      -6.43700500
O       11.56641408      18.05205574      16.31350537      -0.00001684      -0.00026331      -0.00000434      -6.04220124
O        7.51090600       7.87096427      21.16316836      -0.00008053      -0.00028584       0.00036982      -6.57932200
O       15.48444874       1.98605495      13.98894174      -0.00013822       0.00047774      -0.00006105      -6.49135291
O       19.63093877       5.84361221      20.81803855      -0.00010015      -0.00017294       0.00012205      -6.61658104
O       17.42148259      16.44223471      18.51719593      -0.00018235       0.00047181      -0.00015658      -6.48783697
O       17.84755897       7.32860027      16.41016914       0.00014321       0.00015248      -0.00044343      -6.49565474
O        4.96731395      14.75902431      12.73527136      -0.00007498      -0.00038335       0.00039519      -6.42578184
O        7.97643126      18.34741114      15.52950750      -0.00006555       0.00002894       0.00013093      -6.46160824
O       18.43148565      21.13546748      16.00646119      -0.00013260       0.00013763      -0.00001770      -6.60590395
O       17.79338171      19.09341058      17.45578843       0.00014267      -0.00000195       0.00003193      -6.57903882
O        3.72278299      13.81165058      18.16598497      -0.00004195      -0.00027022      -0.00004104      -6.21437307
O        6.56136604      10.35703970       0.50550200      -0.00019568      -0.00037993      -0.00042971      -6.43800533
O        2.77803801      16.97865460      20.67541021      -0.00005231      -0.00001080      -0.00027709      -6.80179969
O        4.57071702      11.56634168      12.89493748       0.00021978       0.00053779       0.00003999      -6.37877610
O       12.07956547       5.14319895      16.92199112       0.00039525       0.00007495       0.00024125      -6.71857226
O        4.96757359       8.38011899       4.62862458      -0.00007176      -0.00002173       0.00026976      -6.71081928
O        4.04743517      10.04270592      10.84970848       0.00018979      -0.00027903      -0.00026873      -6.66348330
O        2.21385936      15.83715646      12.80442736       0.00016405      -0.00014608      -0.00007615      -6.55639839
O        1.21397479      12.79707006       8.27535907      -0.00032442      -0.00012992       0.00030452      -6.45051722
O       20.78688684       0.73329018       5.63002427      -0.00011150      -0.00029930       0.00017614      -6.40523698
O       18.70085467       9.27586252       1.35530926       0.00019535      -0.00028040      -0.00027191      -6.49287442
O        2.12338527      21.22589598      14.78136846      -0.00000955      -0.00007889       0.00035859      -6.49271980
O       15.98229437      19.80883683       5.94023703       0.00028180      -0.00014865      -0.00010435      -6.62786941
O       16.53371132       8.24151632      10.06409051      -0.00011525      -0.00014480      -0.00012092      -6.33951450
O        7.49118939       8.05119134       2.83761850       0.00021838      -0.00062592       0.00010744      -6.50255943
O       18.03628902       0.52954126      13.51067698       0.00017234      -0.00024084       0.00022560      -6.51795076
O        5.93115464      16.95583134      14.26263185      -0.00006603       0.00013902       0.00024616      -6.72066164
O       16.93128718      19.49046410       2.19075285      -0.00006397      -0.00017664      -0.00012430      -6.64934910
O       17.30545547      12.45521155       9.92394573      -0.00046735       0.00001553       0.00035164      -6.69886155