768
Lattice="21.53247567 0.0 0.0 0.0 21.53247567 0.0 0.0 0.0 21.53247567" Properties=species:S:1:pos:R:3:forces:R:3:energies:R:1 Time=34800000.01223417 energy=-7708.750137872028 virial="-86.51279019 -26.45092742 -3.03772576 -26.45092742 -102.45260592 9.93357312 -3.03772576 9.93357312 -55.83289509" stress="-0.00468849 -0.00264966 -0.0003043 -0.00264966 -0.00628523 0.00099507 -0.0003043 0.00099507 -0.0016152" pbc="T T T"
O        1.23756937      11.66516268       1.28801979      -0.00006343       0.00011659      -0.00018038      -6.34628770
O        6.86253174      10.71373994       9.33754109       0.00015417      -0.00003898      -0.00019227      -6.61143300
O        9.08649583       6.07390351      13.35088522      -0.00005533       0.00008975      -0.00009814      -6.44143887
O       12.60614332      18.73562085      19.39192052      -0.00019730      -0.00014044      -0.00042176      -6.28008100
O        7.44277213      20.91070977       8.63302080      -0.00040695      -0.00021837      -0.00012671      -6.66721633
O        6.72848675       7.86535045       2.76352691       0.00022184      -0.00033951       0.00026980      -6.32605130
O        4.64734461      16.35527354      10.08914460       0.00021872      -0.00027245       0.00020433      -6.42348990
O       10.84769618      18.79350234      17.71709996       0.00005760       0.00019915      -0.00009781      -6.13178883
O       18.30741377       0.63840348       3.71587071      -0.00001663      -0.00030234       0.00010726      -6.47310041
O       10.33187208       8.14369316       6.58080249       0.00027166      -0.00010241      -0.00056728      -6.36745226
O       18.49149281      14.08796729       4.02112352      -0.00004176       0.00012719      -0.00017002      -6.47121230
O        0.19713930       2.37954415       7.06489236      -0.00017848      -0.00024833       0.00000948      -6.47174804
O       20.83784913       4.85068271      12.96951074      -0.00031934       0.00011139      -0.00016129      -6.48131629
O        0.19136134      21.35761708      17.03495379      -0.00019552      -0.00001157      -0.00014370      -6.25523873
O       16.25640533      14.24809589       1.24185135       0.00025138       0.00013481       0.00004826      -6.64302796
O       19.26633350      10.03964953      16.57000394       0.00015002      -0.00011172      -0.00028294      -6.71519558
O       14.86404306       4.97622306      15.85966430      -0.00027344       0.00002575       0.00033206      -6.48990948
O       20.68301956      16.45103217       6.61968822      -0.00001477      -0.00014061       0.00005239      -6.25846006
O       18.14052663      19.45730819       4.50894188       0.00018948       0.00016693      -0.00008220      -6.11652893
O        8.38662025      14.34535348       1.91606836      -0.00023553       0.00000981      -0.00009621      -6.22626831
O       20.69992789      19.28698650      18.04881865      -0.00009154       0.00004050       0.00011311      -6.33621401
O       10.35486919       3.44937492      12.84357831      -0.00043128      -0.00034700       0.00023872      -6.35576792
O       16.22730900      18.60008633      21.31634548       0.00000060       0.00004200       0.00019861      -6.88480922
O       19.60877830       4.54276675      18.02077888       0.00009949       0.00001219      -0.00020202      -6.44750889
O        2.16486845       0.02916188      12.28599548      -0.00021018       0.00038064      -0.00005150      -6.47874467
O        4.14352043       5.38330207      16.81355786       0.00022026      -0.00008047      -0.00032416      -6.72172851
O       10.48626601       4.13071360      15.23316813      -0.00028184       0.00024937      -0.00065742      -6.21930265
O        4.89901231       9.69440984       0.51435393       0.00032420       0.00018532      -0.00000527      -6.28859986
O        0.22881442      21.30111948       4.44558490       0.00005783       0.00010071       0.00009253      -6.23780958
O       15.04053141      17.17359822      10.57248422      -0.00023147      -0.00001845      -0.00011733      -6.79531569
O        8.52776516      11.58522265      12.40837279      -0.00042386       0.00000987       0.00000132      -6.46591521
O        3.82301372      19.86503893      10.05862675       0.00023696       0.00067797       0.00012933      -6.05011695
O       10.18196039       1.33598673      10.96180484      -0.00041049      -0.00005748      -0.00011438      -6.69463984
O        2.03841105       7.03883638       7.22953977      -0.00005765       0.00022137       0.00010646      -6.49972496
O        7.58442305      16.86579842      14.77308401      -0.00008136       0.00026288       0.00037968      -6.53731933
O       14.58208310       6.65376593       3.11524929       0.00029066      -0.00018855       0.00022740      -6.51935488
O        7.41072365       0.89972641      18.35272709       0.00034220       0.00019069       0.00030897      -6.71301541
O        0.57599350      18.79387129       7.32469993      -0.00036902       0.00008940       0.00017974      -6.25180898
O        3.59999894       3.61462119       2.91506601       0.00004815       0.00056425       0.00049103      -6.64773545
O       17.84128819       9.23207765       6.87825469       0.00013274      -0.00023888       0.00023038      -6.75028416
O       17.59399787       2.44122466       9.75316311      -0.00008542       0.00027804       0.00004375      -6.43447679
O        3.12480014      12.38210269       5.08247045      -0.00002615       0.00011776      -0.00015522      -6.36736107
O        1.78856393       3.61596041      17.15414893       0.00021519      -0.00043245       0.00040512      -6.50135243
O       16.17085045       9.22840231      13.85788350       0.00025137      -0.00028117      -0.00007980      -6.46974427
O        3.76406957      14.40178566      17.65844344       0.00031751      -0.00022434      -0.00006718      -6.66953428
O        3.23837171       1.34285494      17.56145337      -0.00011805       0.00003399       0.00019502      -6.49761587
O       18.20703287      15.88294722      14.40883117       0.00006092      -0.00013641       0.00015213      -6.24368479
O        0.54224999       2.46331121      13.37812903       0.00008529      -0.00005568      -0.00005809      -6.08718700
O        2.38804009       0.60045171       9.24466369      -0.00014552       0.00004574      -0.00040078      -6.45357461
O       15.64051159      15.83819168      15.68613756      -0.00042740       0.00016152       0.00025347      -6.32564227
O       10.09405428      21.44581233       4.56745648       0.00037650      -0.00031383      -0.00009310      -6.32801589
O       21.38838706      11.14071119      18.25612724      -0.00011433       0.00022798       0.00022239      -6.74139784
O        3.31532779      19.81377722      16.68857773       0.00009011      -0.00000935       0.00015183      -6.68160634
O       14.11339617      10.21374617       3.17650460       0.00018404       0.00008769       0.00006505      -6.30175002
O        8.40801332      10.95956885      17.75774518      -0.00013989       0.00016382      -0.00015213      -6.28824544
O       12.13281939      20.69828734      15.61807215       0.00013766      -0.00002876       0.00015812      -6.50315674
O       20.66941339       8.20444137       0.85344285       0.00027814      -0.00003311      -0.00014987      -6.56427180
O        6.74514692       6.22294952       0.67145514       0.00021133       0.00033899       0.00018900      -6.33627487
O        6.97380226       6.87509181      12.17511697       0.00023504      -0.00030928      -0.00004929      -6.29261300
O        1.67674702      18.00102078      19.04970673       0.00017397       0.00033632      -0.00028665      -6.38586405
O       19.48446831      12.85991368      17.97375283       0.00008471       0.00007529      -0.00037076      -6.59347379
O       19.85488688       4.08641632       5.31184856      -0.00009383      -0.00012758       0.00046554      -6.49396923
O       16.54344364      14.55238431      20.12141934       0.00066877       0.00027479       0.00029846      -6.45419651
O       13.56566391       6.31591051      10.78278110      -0.00005833      -0.00010306       0.00001673      -6.16755401
O       11.38768324       1.20873746      14.10100258       0.00046403      -0.00004373       0.00012080      -6.71793774
O       21.17512088      14.23971440      10.15040581      -0.00012942      -0.00007369       0.00031557      -6.39658289
O        3.40448486      10.91243261       2.53654406      -0.00003039       0.00015452      -0.00002842      -6.44002245
O       18.09517195      16.69889870       3.79749488      -0.00021958      -0.00008697       0.00016278      -6.16812654
O        4.92693106      13.43051700      10.05798462      -0.00025951       0.00003143       0.00001335      -6.68831746
O       17.12669345      19.82469029      11.76252124      -0.00024706       0.00037920       0.00015801      -6.20293956
O        2.48490023      18.11308350       8.76973952       0.00033898       0.00031889       0.00013625      -6.29165038
O        6.76197518      20.18487427       5.76208592      -0.00034213      -0.00004404       0.00016748      -6.67208789
O        8.48553603       5.33933461       4.37494675      -0.00013699      -0.00000587      -0.00000987      -6.77608469
O       15.59233167       9.90455245       8.90027797       0.00017568      -0.00003805       0.00000639      -6.53783475
O       10.19949287       9.71294363      12.05981622      -0.00020246       0.00031875       0.00014054      -6.21821226
O       18.63537990       3.62953603      13.89793979       0.00042090       0.00011276       0.00002778      -6.35152287
O       21.31989458       8.67102800      14.60914301      -0.00007795       0.00013544      -0.00000628      -6.62570900
O        7.25281967       6.09605128       8.92550100      -0.00004406      -0.00012740       0.00007369      -6.37686183
O        9.01284964       8.61978930      14.33083810       0.00003605       0.00012289       0.00021526      -6.56157293
O       10.50639206      16.12722228      18.85262415       0.00023795       0.00014817       0.00010041      -6.68319712
O       13.18921381      21.12522735       2.63621506       0.00009559      -0.00002084       0.00000505      -6.64987858
O        0.51726666       4.63503964       9.09932932      -0.00012902       0.00020564      -0.00032649      -6.39787990
O       12.39831240       4.93889101      17.01434935      -0.00021064       0.00022352      -0.00016198      -6.20276291
O       14.24870519       7.04318977       7.56055864       0.00011245      -0.00031067       0.00018677      -6.23535080
O        8.74991448       0.54595284      13.85260017      -0.00017376      -0.00024250      -0.00042397      -6.61457915
O       17.57746740      21.12041112      13.97835605      -0.00009032      -0.00014382       0.00004338      -6.05018426
O        4.25041199       6.01643892       1.18236352       0.00018487      -0.00026296       0.00022009      -6.33784832
O        7.68612339      13.20230598      10.48882022      -0.00021475       0.00036694      -0.00018329      -6.23513874
O       15.00095348      20.45537171       9.17248686       0.00019374       0.00023935      -0.00008950      -6.34556273
O       15.13833521       3.21018302       6.82952278       0.00023814       0.00005733      -0.00002844      -6.44619971
O       19.39331382       9.21439854      11.32706638      -0.00018060       0.00034045      -0.00006165      -6.40767872
O        8.37697959      16.89678538       0.82752256       0.00008905       0.00010870      -0.00013579      -6.45792722
O       15.94962319       5.79458550      13.63295709      -0.00038016       0.00023978      -0.00013243      -6.38600519
O       12.50678906       7.54532277       1.33247554      -0.00022885       0.00001485      -0.00008684      -6.73221732
O        5.25081691      14.36302467       6.14398705      -0.00023406      -0.00008281      -0.00024904      -6.61452236
O       20.77581153       0.85095042       9.44209327       0.00010575       0.00019870       0.00012780      -6.67584325
O       13.89185997      12.57606094      17.08399148       0.00017623      -0.00015210      -0.00034896      -6.44959795
O       12.98894277      15.13181931      10.04499842       0.00000595      -0.00012940      -0.00001463      -6.75120407
O        8.26422880      18.22997376       5.86804540       0.00030222       0.00008067       0.00029715      -6.47169698
O       21.30526999      13.03130219       3.17974751      -0.00005921       0.00019940       0.00034539      -6.65981529
O        5.70330083       4.37311659      11.64682517      -0.00017987       0.00004867       0.00024190      -6.31437636
O       18.33283438      17.34605453       6.68744092      -0.00015682       0.00001579      -0.00007599      -6.52053513
O       21.38848629      19.20103560      20.48980458       0.00013357       0.00014718      -0.00005893      -6.22431309
O       17.94447816      11.87710112       5.23886720       0.00007800      -0.00072974      -0.00011871      -6.63761995
O       17.48135458       4.54844274      11.33730226      -0.00038256       0.00006921       0.00009407      -6.29004975
O       15.52912624      17.08130144      18.84485710      -0.00015060      -0.00017807       0.00013764      -6.95181439
O       12.61630870      21.50401671      10.15067283      -0.00031378       0.00038693      -0.00015880      -6.60893465
O       10.90032343      16.31624378      12.81046150       0.00015441      -0.00004426       0.00005728      -6.80798928
O       12.31586112      10.76055758       0.81016059       0.00015772       0.00000245      -0.00000553      -6.77027823
O       21.15628578       0.25101719      20.97220044       0.00013046      -0.00028065       0.00009506      -6.33364409
O       16.08991626       3.26733904      21.29432530      -0.00008414      -0.00013621       0.00042552      -6.68551368
O       12.99354301      15.90391213      15.27172217      -0.00037710      -0.00000891      -0.00003529      -6.33426750
O        9.84868146      14.87713064       7.48973420      -0.00021546       0.00022940      -0.00003176      -6.35706592
O       21.19368052       4.60027738      15.41690885      -0.00043258      -0.00039023      -0.00019170      -6.49089515
O       18.31172120      12.75509255      20.24576325      -0.00016112       0.00012598       0.00017647      -6.62995247
O       15.84350993      21.42466753       1.07129917      -0.00000860      -0.00025121       0.00013772      -6.62049597
O        1.66329727       6.89857666       0.22713963       0.00030072       0.00002733       0.00006978      -6.21363776
O       20.07273853      18.29709864       1.29697502      -0.00012356      -0.00008674       0.00000875      -6.50032989
O       14.96141475       7.50676294      15.98456488      -0.00002769      -0.00013293       0.00017693      -6.65180990
O       20.95684547       2.28796392      16.38472080       0.00007629       0.00051641       0.00002990      -6.53858183
O        7.04228322      16.40141804      12.02596981      -0.00017938      -0.00004147       0.00059998      -6.81080200
O       20.05112647      15.01194157      12.80623777      -0.00034201      -0.00029041       0.00028976      -6.48285974
O        8.23581911      13.50812106       4.35615844      -0.00003001      -0.00026051      -0.00007883      -6.46292872
O        1.26279863       8.80571821      17.10066735      -0.00032554       0.00021749       0.00003923      -6.29187008
O        9.83900783      18.88193542      14.32191203      -0.00005133       0.00026131      -0.00018695      -6.88093560
O       17.87222128       7.98454516      19.24000270       0.00025486      -0.00001638      -0.00017254      -6.30525679
O        0.80637523      12.45412707      16.15161093       0.00005600       0.00006429      -0.00016491      -6.57781545
O       13.22664554      10.73783792      19.57558133       0.00034713       0.00031210       0.00025251      -6.42440152
O       19.95454541      19.12068606      12.00203975      -0.00006123      -0.00007960      -0.00004076      -6.39746131
O        0.84844098      20.05737870       9.91591339       0.00035126      -0.00005160      -0.00030751      -6.66613578
O       20.52195343       7.79054033       3.52062879       0.00020293       0.00041435      -0.00013048      -6.41709363
O        9.77913210       1.97034652      16.45744964      -0.00004988      -0.00031991       0.00021475      -6.77969476
O       20.09802707      11.82846916      11.75469072      -0.00004369      -0.00002523      -0.00007970      -6.53562873
O       12.38379225       2.53110630      17.99544507      -0.00001850      -0.00053003       0.00003509      -6.30249699
O       10.56756609      12.77660316       2.09688392       0.00020062      -0.00010619       0.00017407      -6.59090860
O       12.12025682      18.14112091      10.79115661      -0.00019138       0.00018612       0.00002783      -6.55578681
O        1.28655573      10.74307711       4.03059681      -0.00025823      -0.00026114       0.00040022      -6.28280258
O       13.97423477      19.76320470       5.37530749      -0.00014876      -0.00028040      -0.00008426      -6.29736532
O        4.96992555      15.34087776      14.95502622       0.00062781       0.00012546      -0.00026770      -6.25623606
O        4.82972458      11.42271553      20.34304156       0.00018462       0.00018332      -0.00049029      -6.29900385
O       13.66028354      15.54789321       5.92856533       0.00027752      -0.00014091      -0.00000197      -6.35081278
O        3.28233889      13.39348224       1.78748438      -0.00026243       0.00010819      -0.00016710      -6.10770759
O        2.92570271      13.49431741      15.15496083      -0.00029937       0.00034157      -0.00022355      -6.44156313
O       11.04626231      15.61537580       2.42676895       0.00015880       0.00044645      -0.00013597      -6.62851451
O       16.51684934      19.69897051       6.73002561      -0.00015156      -0.00018833       0.00000101      -6.59128997
O        7.81778555       2.89236363      20.86173510      -0.00017713       0.00001830      -0.00027968      -6.63147603
O       15.30134235       8.75051085       1.02204820       0.00040368      -0.00007314       0.00027800      -6.81304177
O        3.67145981       7.88695563      16.08091332      -0.00007587      -0.00024965       0.00007186      -6.63072615
O       12.63283516       7.92528267      20.08303168       0.00001559       0.00011660       0.00013464      -6.53477737
O        4.77300330      15.14674768      12.54881327       0.00022700      -0.00037727      -0.00010687      -6.49847978
O       10.18088114      20.27204542       9.33073016      -0.00050094       0.00009207       0.00015044      -6.54388977
O        9.02536961       8.24049718       4.33620576       0.00006332      -0.00013751       0.00013518      -6.58943918
O        1.82050287       6.14773524       3.27928820       0.00011423      -0.00017793       0.00024916      -6.59895871
O       19.53252906      10.87898949       8.89381837      -0.00051794      -0.00028822       0.00034603      -6.69095055
O       11.51143835       3.30654204       9.41054735      -0.00016374       0.00018421      -0.00015342      -6.21395870
O        5.05277381       7.54088119      20.64401790       0.00050656       0.00027264      -0.00008272      -6.42882923
O       18.13105132       2.05818049      16.39228968       0.00001059       0.00016267       0.00005075      -6.74127910
O       20.60916800       2.17675125       3.02698889       0.00005542      -0.00023173      -0.00030148      -6.66617062
O       -0.08840688       8.71725032       8.84144847      -0.00010743      -0.00026170       0.00002285      -6.49462109
O       13.83512881      19.34308310       0.42086345       0.00011590      -0.00011279      -0.00018977      -6.85621285
O       18.14593892      15.24291676      17.26409237       0.00028283      -0.00024328      -0.00001940      -6.77822731
O       14.79028699      12.04728666       1.05248604       0.00012434      -0.00013770      -0.00028700      -6.53316511
O       21.19314543      16.89863475      11.54828884      -0.00017002       0.00054827      -0.00022391      -6.50268790
O        5.72753760       5.71465283       4.03726094       0.00010980      -0.00014082      -0.00013315      -6.49650543
O        6.64018052      19.43664549      17.01338059      -0.00020489      -0.00018188      -0.00013405      -6.51402711
O       20.53982165       8.93678076       6.37209305      -0.00012567      -0.00005493      -0.00013790      -6.34687138
O       11.67104788       2.60042253      21.01398151       0.00008297       0.00015770      -0.00004287      -6.71834701
O        6.63846646      18.43596673       2.02576961      -0.00033514      -0.00021097      -0.00000595      -6.26247217
O        5.78052767       2.56680584       4.61046064       0.00002774      -0.00000594       0.00025518      -6.38511017
O       15.93760250      20.79512548       3.35145551      -0.00033453      -0.00021752       0.00000170      -6.46165898
O        6.00648792      12.81115718      18.20151661      -0.00018338       0.00001251      -0.00002509      -6.65389442
O        8.83851812      20.51484464      19.25716407       0.00006883       0.00007639       0.00015212      -6.75225784
O        9.36738723       5.64754316      17.15141890       0.00021683       0.00016302      -0.00038462      -6.54088824
O       21.39609763      12.56766367       8.21639125       0.00029525       0.00018262       0.00010706      -6.50112044
O       15.80723083       0.97922943       8.09349216       0.00008117       0.00017252       0.00005626      -6.53758527
O        2.89649411      11.39945126      18.41491506      -0.00036305      -0.00027558      -0.00040785      -6.31326113
O        3.77422893      16.52158950       7.22278049       0.00002791      -0.00037286      -0.00006209      -6.21492471
O       10.45465582      16.16268405      16.00867702      -0.00015208      -0.00024705       0.00013578      -6.33480231
O        6.49041638       7.04883600      17.32317738       0.00028597       0.00002088       0.00020034      -6.34931514
O       10.44445969       4.36333950       0.75778437       0.00001820       0.00000981      -0.00000904      -6.64790578
O        7.71603007       1.19154945       1.69513945      -0.00017804      -0.00016400       0.00000432      -6.78702150
O       15.65098927       8.32947993      11.31633910       0.00010178       0.00022313      -0.00025443      -6.63607350
O       12.08444397       1.16081761       5.21110433       0.00003192       0.00019051      -0.00036823      -6.32985215
O        1.68346586       5.33992374      11.94705555       0.00012818      -0.00002653       0.00019592      -6.41107231
O        3.03405277      13.30010168      20.80296593      -0.00003793      -0.00001887      -0.00040286      -6.59326173
O       19.02713258      13.66196829       1.43329954       0.00004038      -0.00013308      -0.00017087      -6.27827458
O        0.48781320      13.36602799      13.14944743      -0.00010957       0.00058919      -0.00037373      -6.49935188
O       12.59053225       7.38678946      17.63649588      -0.00010868      -0.00005746      -0.00034311      -6.70718303
O        7.65001131      16.47463316      19.55177531      -0.00002414       0.00001799      -0.00054029      -6.54196638
O       20.65341374      17.10586764      14.66353040      -0.00015970       0.00038863       0.00006021      -6.57329418
O       15.80640379      14.55843737      11.83413070      -0.00013579       0.00002509       0.00029923      -6.75631429
O       12.97395051      12.32675585       7.34670666       0.00016288      -0.00017559      -0.00025366      -6.74968909
O        3.86209540       9.37752650       8.08263917      -0.00025265       0.00028145      -0.00015281      -6.62450030
O       17.72415497       7.02825960      11.96208316      -0.00007336      -0.00001398      -0.00010380      -6.28261134
O        1.82445905      15.92732236      13.12712761      -0.00016728      -0.00004263       0.00017912      -6.69405767
O       10.13975595      13.61743052      12.62283376       0.00013023      -0.00005801      -0.00008526      -6.17013448
O        0.98240618       6.26834302      18.58096376       0.00017892       0.00024273      -0.00041131      -6.54689801
O        9.16377789      20.62872988      16.23449219       0.00017008       0.00032955      -0.00012781      -6.64660309
O        3.72367735      20.37914623      14.18108368      -0.00020706       0.00036178      -0.00019560      -6.29279689
O       15.98181006      10.11341099      16.65896180       0.00010460      -0.00006779      -0.00020453      -6.29826044
O        6.37990022      15.77534066      17.49711205       0.00012353       0.00032557      -0.00027849      -6.54142294
O       19.58834080       1.08470904      14.47706417      -0.00031436       0.00040329      -0.00001204      -6.49756283
O       11.67543570      20.08538425       6.42922579       0.00015811       0.00035506       0.00031115      -6.53579845
O       20.67361269      18.90511766       4.83536426      -0.00009942      -0.00036313      -0.00005042      -6.33167579
O       18.55651680       6.56960139      14.45991918       0.00029645      -0.00010190       0.00019215      -6.48695657
O        0.30950901      16.34139950      20.52630974      -0.00014018      -0.00016748       0.00018469      -6.90054988
O       17.11793438      11.78552816       8.00960951       0.00014514       0.00035167       0.00004627      -6.23484064
O       10.26104116       9.45400383       1.59851209       0.00014447       0.00009016      -0.00012485      -6.59600920
O        1.46353095       8.37638655       4.88738013      -0.00016240      -0.00004245       0.00006938      -6.58578092
O        4.84571038      20.67821113      19.03035705      -0.00001206       0.00022197       0.00002496      -6.50507737
O        0.12451891       9.12345223      20.09907840       0.00023842      -0.00016580       0.00017892      -6.66698365
O       11.11453118      17.44164327       7.34216192      -0.00044105       0.00004701       0.00029137      -6.55674614
O        8.00341018      10.40492071       6.06702830       0.00040903       0.00017424       0.00049801      -6.45315144
O       19.83679241      20.44908921       2.61367955      -0.00011663       0.00012872       0.00000532      -6.29073737
O        5.09956864       1.27957886      10.00200219       0.00011826      -0.00014705      -0.00012859      -6.72296974
O       13.18338634      18.20462114      16.58690830       0.00012098      -0.00033574       0.00003333      -6.60269107
O        4.47919983      17.88443562      12.65412391       0.00013428       0.00034479      -0.00010449      -6.60750743
O       20.38527787      14.05638104       5.79667515       0.00025347      -0.00025546       0.00009528      -6.36990718
O       19.92659459      20.45128947       6.80236531      -0.00017997      -0.00014305       0.00024960      -6.37662685
O        9.21211352       5.64289126       7.00555654      -0.00027304       0.00031358      -0.00024365      -6.32693131
O        3.60004235       2.62920397      12.05422010      -0.00007450       0.00031528      -0.00012421      -6.45328612
O        9.71030567      18.45769381      20.95880347       0.00014662      -0.00005966       0.00005495      -6.77477536
O        2.00070932      18.62405968      13.83948526       0.00015227      -0.00006812       0.00004357      -6.11875047
O       20.38343895       2.60516896      21.32847460       0.00013236       0.00017131      -0.00010430      -6.47824688
O       15.47671265      13.34647642       6.77422410       0.00032117       0.00013489       0.00016221      -6.15479210
O       10.00975961       0.71897931       7.66181149      -0.00011260       0.00023670      -0.00031352      -6.78828581
O        0.84506541       1.40956609      18.99471848      -0.00030104       0.00015751       0.00030630      -6.26987930
O       16.85291094      20.95736061      16.94771417       0.00039258       0.00042342       0.00025564      -6.17648210
O       14.42688387      17.89050789       7.94832180      -0.00002131       0.00057078       0.00069845      -6.46240007
O        2.42882755      11.91154657      10.23364188       0.00019542       0.00001360      -0.00002949      -6.70773042
O        4.09057694       9.87083251       5.07098156       0.00020578       0.00011881       0.00017529      -6.68063401
O        3.65137079      18.51031795      20.68616335       0.00004097      -0.00000874       0.00027332      -6.69814674
O        2.52109399      16.20818929      16.19087014       0.00009925       0.00011039      -0.00004038      -6.78489922
O        8.27353420      13.93831318      17.52762896      -0.00041610       0.00034417      -0.00021697      -6.34804135
O       16.94140307      11.87933948      17.97724329       0.00008979       0.00009351       0.00000375      -6.19053908
O        1.23267264      10.54884867      12.86634573      -0.00005070       0.00016128       0.00013974      -6.49834965
O        4.58586114      20.53594696       0.93099666       0.00034950       0.00000246       0.00021308      -6.53440173
O       19.08130882      17.60114957      19.92664842       0.00009590      -0.00032453      -0.00006515      -6.69882218
O       20.90299747       6.32022361       5.78668833       0.00023949       0.00002243       0.00003465      -6.41559626
O        1.44930330      19.10248263       0.92559138      -0.00002288      -0.00007774      -0.00023144      -6.41939068
O       12.26420802      13.32596181      15.15514624       0.00030605      -0.00039716       0.00002060      -6.63097788
O        6.05112029      17.56407926       7.38951254       0.00001464      -0.00013934      -0.00040006      -6.38872320